# Probe 0 (15.31 -0.61 0)
# Probe 1 (15.31 -0.6 0)
# Probe 2 (15.31 -0.59 0)
# Probe 3 (15.31 -0.58 0)
# Probe 4 (15.31 -0.57 0)
# Probe 5 (15.31 -0.56 0)
# Probe 6 (15.31 -0.55 0)
# Probe 7 (15.31 -0.54 0)
# Probe 8 (15.31 -0.53 0)
# Probe 9 (15.31 -0.52 0)
# Probe 10 (15.31 -0.51 0)
# Probe 11 (15.31 -0.5 0)
# Probe 12 (15.31 -0.49 0)
# Probe 13 (15.31 -0.48 0)
# Probe 14 (15.31 -0.47 0)
# Probe 15 (15.31 -0.46 0)
# Probe 16 (15.31 -0.45 0)
# Probe 17 (15.31 -0.44 0)
# Probe 18 (15.31 -0.43 0)
# Probe 19 (15.31 -0.42 0)
# Probe 20 (15.31 -0.41 0)
# Probe 21 (15.31 -0.4 0)
# Probe 22 (15.31 -0.39 0)
# Probe 23 (15.31 -0.38 0)
# Probe 24 (15.31 -0.37 0)
# Probe 25 (15.31 -0.36 0)
# Probe 26 (15.31 -0.35 0)
# Probe 27 (15.31 -0.34 0)
# Probe 28 (15.31 -0.33 0)
# Probe 29 (15.31 -0.32 0)
# Probe 30 (15.31 -0.31 0)
# Probe 31 (15.31 -0.3 0)
# Probe 32 (15.31 -0.29 0)
# Probe 33 (15.31 -0.28 0)
# Probe 34 (15.31 -0.27 0)
# Probe 35 (15.31 -0.26 0)
# Probe 36 (15.31 -0.25 0)
# Probe 37 (15.31 -0.24 0)
# Probe 38 (15.31 -0.23 0)
# Probe 39 (15.31 -0.22 0)
# Probe 40 (15.31 -0.21 0)
# Probe 41 (15.31 -0.2 0)
# Probe 42 (15.31 -0.19 0)
# Probe 43 (15.31 -0.18 0)
# Probe 44 (15.31 -0.17 0)
# Probe 45 (15.31 -0.16 0)
# Probe 46 (15.31 -0.15 0)
# Probe 47 (15.31 -0.14 0)
# Probe 48 (15.31 -0.13 0)
# Probe 49 (15.31 -0.12 0)
# Probe 50 (15.31 -0.11 0)
# Probe 51 (15.31 -0.1 0)
# Probe 52 (15.31 -0.09 0)
# Probe 53 (15.31 -0.08 0)
# Probe 54 (15.31 -0.07 0)
# Probe 55 (15.31 -0.06 0)
# Probe 56 (15.31 -0.05 0)
# Probe 57 (15.31 -0.04 0)
# Probe 58 (15.31 -0.03 0)
# Probe 59 (15.31 -0.02 0)
# Probe 60 (15.31 -0.01 0)
# Probe 61 (15.31 0 0)
# Probe 62 (15.31 0.01 0)
# Probe 63 (15.31 0.02 0)
# Probe 64 (15.31 0.03 0)
# Probe 65 (15.31 0.04 0)
# Probe 66 (15.31 0.05 0)
# Probe 67 (15.31 0.06 0)
# Probe 68 (15.31 0.07 0)
# Probe 69 (15.31 0.08 0)
# Probe 70 (15.31 0.09 0)
# Probe 71 (15.31 0.1 0)
# Probe 72 (15.31 0.11 0)
# Probe 73 (15.31 0.12 0)
# Probe 74 (15.31 0.13 0)
# Probe 75 (15.31 0.14 0)
#       Probe             0             1             2             3             4             5             6             7             8             9            10            11            12            13            14            15            16            17            18            19            20            21            22            23            24            25            26            27            28            29            30            31            32            33            34            35            36            37            38            39            40            41            42            43            44            45            46            47            48            49            50            51            52            53            54            55            56            57            58            59            60            61            62            63            64            65            66            67            68            69            70            71            72            73            74            75
#        Time
          0.1             (6.30776e-12 -2.3003e-12 0)             (5.77686e-12 -4.05894e-12 0)             (5.77686e-12 -4.05894e-12 0)             (5.43049e-12 -3.1957e-12 0)             (5.43049e-12 -3.1957e-12 0)             (5.22911e-12 -2.46707e-12 0)             (5.15064e-12 -1.66745e-12 0)             (5.15064e-12 -1.66745e-12 0)             (5.18183e-12 -9.46866e-13 0)             (5.30421e-12 -3.75452e-13 0)             (5.30421e-12 -3.75452e-13 0)             (5.49718e-12 2.1764e-14 0)             (5.49718e-12 2.1764e-14 0)             (5.73842e-12 2.39563e-13 0)             (6.01019e-12 2.81817e-13 0)             (6.01019e-12 2.81817e-13 0)             (6.29372e-12 1.62167e-13 0)             (6.57668e-12 -1.1461e-13 0)             (6.84694e-12 -5.27822e-13 0)             (6.84694e-12 -5.27822e-13 0)             (7.09636e-12 -1.04117e-12 0)             (7.31802e-12 -1.63309e-12 0)             (7.31802e-12 -1.63309e-12 0)             (7.50734e-12 -2.28217e-12 0)             (7.66227e-12 -2.9616e-12 0)             (7.78231e-12 -3.64426e-12 0)             (7.78231e-12 -3.64426e-12 0)             (7.86608e-12 -4.3194e-12 0)             (7.91497e-12 -4.98207e-12 0)             (7.92784e-12 -5.60918e-12 0)             (7.90707e-12 -6.19156e-12 0)             (7.90707e-12 -6.19156e-12 0)             (7.85375e-12 -6.71632e-12 0)             (7.77075e-12 -7.18499e-12 0)             (7.66143e-12 -7.62311e-12 0)             (7.52837e-12 -8.05268e-12 0)             (7.3755e-12 -8.46566e-12 0)             (7.3755e-12 -8.46566e-12 0)             (7.20587e-12 -8.84827e-12 0)             (7.02571e-12 -9.20555e-12 0)             (6.83751e-12 -9.52274e-12 0)             (6.64265e-12 -9.80353e-12 0)             (6.44402e-12 -1.00453e-11 0)             (6.24207e-12 -1.02581e-11 0)             (6.03742e-12 -1.04337e-11 0)             (5.83084e-12 -1.05704e-11 0)             (5.62353e-12 -1.06711e-11 0)             (5.41745e-12 -1.07376e-11 0)             (5.21286e-12 -1.07755e-11 0)             (5.0119e-12 -1.07727e-11 0)             (4.81522e-12 -1.0738e-11 0)             (4.62309e-12 -1.06694e-11 0)             (4.43728e-12 -1.05779e-11 0)             (4.08376e-12 -1.03019e-11 0)             (3.91711e-12 -1.01391e-11 0)             (3.75838e-12 -9.95029e-12 0)             (3.60821e-12 -9.74417e-12 0)             (3.46601e-12 -9.53596e-12 0)             (3.20981e-12 -9.07418e-12 0)             (3.09398e-12 -8.82611e-12 0)             (2.98822e-12 -8.55866e-12 0)             (2.88986e-12 -8.27789e-12 0)             (2.71732e-12 -7.70938e-12 0)             (2.64341e-12 -7.41093e-12 0)             (2.51512e-12 -6.79618e-12 0)             (2.46187e-12 -6.46998e-12 0)             (2.41335e-12 -6.16605e-12 0)             (2.33442e-12 -5.50942e-12 0)             (2.27581e-12 -4.85159e-12 0)             (2.2542e-12 -4.52778e-12 0)             (2.22204e-12 -3.85381e-12 0)             (2.21227e-12 -3.53045e-12 0)             (2.20227e-12 -2.85042e-12 0)             (2.20478e-12 -2.18473e-12 0)             (2.21843e-12 -1.51194e-12 0)             (2.23962e-12 -8.21153e-13 0)
          0.2             (-6.84359e-13 5.1952e-13 0)             (-1.0465e-12 5.15681e-13 0)             (-1.0465e-12 5.15681e-13 0)             (-1.08801e-12 -4.96855e-13 0)             (-1.08801e-12 -4.96855e-13 0)             (-9.49157e-13 -1.37143e-12 0)             (-6.05004e-13 -2.13124e-12 0)             (-6.05004e-13 -2.13124e-12 0)             (-9.17107e-14 -2.84654e-12 0)             (5.51726e-13 -3.48431e-12 0)             (5.51726e-13 -3.48431e-12 0)             (1.28193e-12 -4.03038e-12 0)             (1.28193e-12 -4.03038e-12 0)             (2.06068e-12 -4.47818e-12 0)             (2.85292e-12 -4.81497e-12 0)             (2.85292e-12 -4.81497e-12 0)             (3.63064e-12 -5.03911e-12 0)             (4.37263e-12 -5.17235e-12 0)             (5.06081e-12 -5.2156e-12 0)             (5.06081e-12 -5.2156e-12 0)             (5.68635e-12 -5.18604e-12 0)             (6.24231e-12 -5.10583e-12 0)             (6.24231e-12 -5.10583e-12 0)             (6.72643e-12 -4.99074e-12 0)             (7.1371e-12 -4.87003e-12 0)             (7.47748e-12 -4.74921e-12 0)             (7.47748e-12 -4.74921e-12 0)             (7.7498e-12 -4.62496e-12 0)             (7.95809e-12 -4.49725e-12 0)             (8.10587e-12 -4.36553e-12 0)             (8.19774e-12 -4.22934e-12 0)             (8.19774e-12 -4.22934e-12 0)             (8.24004e-12 -4.09758e-12 0)             (8.23808e-12 -3.9696e-12 0)             (8.19652e-12 -3.85147e-12 0)             (8.11975e-12 -3.74895e-12 0)             (8.01389e-12 -3.6498e-12 0)             (8.01389e-12 -3.6498e-12 0)             (7.88169e-12 -3.56374e-12 0)             (7.72774e-12 -3.4868e-12 0)             (7.55859e-12 -3.41628e-12 0)             (7.37563e-12 -3.35362e-12 0)             (7.18494e-12 -3.28629e-12 0)             (6.98763e-12 -3.22391e-12 0)             (6.78537e-12 -3.17356e-12 0)             (6.58154e-12 -3.12145e-12 0)             (6.37674e-12 -3.06588e-12 0)             (6.17235e-12 -3.0089e-12 0)             (5.96985e-12 -2.94733e-12 0)             (5.7698e-12 -2.88435e-12 0)             (5.57455e-12 -2.81244e-12 0)             (5.38269e-12 -2.7366e-12 0)             (5.19769e-12 -2.65765e-12 0)             (4.8446e-12 -2.50489e-12 0)             (4.67756e-12 -2.44237e-12 0)             (4.51766e-12 -2.38721e-12 0)             (4.36499e-12 -2.33222e-12 0)             (4.22035e-12 -2.28064e-12 0)             (3.9546e-12 -2.20599e-12 0)             (3.83427e-12 -2.16858e-12 0)             (3.72167e-12 -2.13901e-12 0)             (3.61699e-12 -2.11897e-12 0)             (3.43032e-12 -2.07027e-12 0)             (3.3501e-12 -2.03695e-12 0)             (3.2087e-12 -1.97445e-12 0)             (3.14871e-12 -1.93537e-12 0)             (3.09424e-12 -1.91639e-12 0)             (3.00347e-12 -1.82373e-12 0)             (2.93411e-12 -1.76142e-12 0)             (2.90719e-12 -1.69951e-12 0)             (2.86635e-12 -1.59059e-12 0)             (2.85247e-12 -1.53573e-12 0)             (2.83554e-12 -1.39766e-12 0)             (2.83302e-12 -1.23331e-12 0)             (2.84292e-12 -1.05972e-12 0)             (2.86253e-12 -9.38405e-13 0)
          0.3             (-1.43402e-11 -1.93315e-12 0)             (-1.44513e-11 -3.26186e-12 0)             (-1.44513e-11 -3.26186e-12 0)             (-1.43931e-11 -2.44812e-12 0)             (-1.43931e-11 -2.44812e-12 0)             (-1.43307e-11 -1.93304e-12 0)             (-1.42156e-11 -1.34389e-12 0)             (-1.42156e-11 -1.34389e-12 0)             (-1.40479e-11 -8.44997e-13 0)             (-1.38225e-11 -4.94607e-13 0)             (-1.38225e-11 -4.94607e-13 0)             (-1.35392e-11 -3.09935e-13 0)             (-1.35392e-11 -3.09935e-13 0)             (-1.32043e-11 -2.97814e-13 0)             (-1.28229e-11 -4.51849e-13 0)             (-1.28229e-11 -4.51849e-13 0)             (-1.24e-11 -7.33483e-13 0)             (-1.19361e-11 -1.12536e-12 0)             (-1.14408e-11 -1.61557e-12 0)             (-1.14408e-11 -1.61557e-12 0)             (-1.09176e-11 -2.1732e-12 0)             (-1.03747e-11 -2.7781e-12 0)             (-1.03747e-11 -2.7781e-12 0)             (-9.81502e-12 -3.41316e-12 0)             (-9.24443e-12 -4.0538e-12 0)             (-8.66623e-12 -4.67785e-12 0)             (-8.66623e-12 -4.67785e-12 0)             (-8.0836e-12 -5.27741e-12 0)             (-7.49924e-12 -5.84429e-12 0)             (-6.91617e-12 -6.36278e-12 0)             (-6.33435e-12 -6.83685e-12 0)             (-6.33435e-12 -6.83685e-12 0)             (-5.7563e-12 -7.28002e-12 0)             (-5.18591e-12 -7.68927e-12 0)             (-4.62481e-12 -8.06604e-12 0)             (-4.07595e-12 -8.40583e-12 0)             (-3.5412e-12 -8.71168e-12 0)             (-3.5412e-12 -8.71168e-12 0)             (-3.0217e-12 -9.00164e-12 0)             (-2.51873e-12 -9.27324e-12 0)             (-2.029e-12 -9.50833e-12 0)             (-1.55493e-12 -9.68265e-12 0)             (-1.09637e-12 -9.81444e-12 0)             (-6.51849e-13 -9.93194e-12 0)             (-2.20763e-13 -1.00242e-11 0)             (1.9599e-13 -1.01078e-11 0)             (5.99261e-13 -1.01766e-11 0)             (9.89902e-13 -1.02334e-11 0)             (1.37161e-12 -1.02645e-11 0)             (1.74518e-12 -1.0232e-11 0)             (2.10743e-12 -1.01352e-11 0)             (2.45802e-12 -9.99467e-12 0)             (2.79711e-12 -9.82263e-12 0)             (3.43808e-12 -9.39947e-12 0)             (3.74129e-12 -9.17e-12 0)             (4.03184e-12 -8.92459e-12 0)             (4.31136e-12 -8.66849e-12 0)             (4.57953e-12 -8.40662e-12 0)             (5.08457e-12 -7.85486e-12 0)             (5.32023e-12 -7.56235e-12 0)             (5.54613e-12 -7.26465e-12 0)             (5.76131e-12 -6.97144e-12 0)             (6.16001e-12 -6.35297e-12 0)             (6.34607e-12 -6.0414e-12 0)             (6.68907e-12 -5.442e-12 0)             (6.84668e-12 -5.1277e-12 0)             (6.99425e-12 -4.82687e-12 0)             (7.26323e-12 -4.22164e-12 0)             (7.4973e-12 -3.61112e-12 0)             (7.60117e-12 -3.31759e-12 0)             (7.78769e-12 -2.70302e-12 0)             (7.86999e-12 -2.41285e-12 0)             (8.01273e-12 -1.82123e-12 0)             (8.13044e-12 -1.23148e-12 0)             (8.22264e-12 -6.44184e-13 0)             (8.29288e-12 -1.07451e-14 0)
          0.4             (-2.35426e-11 -2.52912e-12 0)             (-2.368e-11 -4.46767e-12 0)             (-2.368e-11 -4.46767e-12 0)             (-2.35347e-11 -3.61132e-12 0)             (-2.35347e-11 -3.61132e-12 0)             (-2.33621e-11 -2.92635e-12 0)             (-2.3091e-11 -2.1241e-12 0)             (-2.3091e-11 -2.1241e-12 0)             (-2.27327e-11 -1.43999e-12 0)             (-2.22905e-11 -9.43179e-13 0)             (-2.22905e-11 -9.43179e-13 0)             (-2.17699e-11 -6.69774e-13 0)             (-2.17699e-11 -6.69774e-13 0)             (-2.11778e-11 -6.3046e-13 0)             (-2.05247e-11 -7.99153e-13 0)             (-2.05247e-11 -7.99153e-13 0)             (-1.98198e-11 -1.14473e-12 0)             (-1.90675e-11 -1.64773e-12 0)             (-1.82815e-11 -2.26764e-12 0)             (-1.82815e-11 -2.26764e-12 0)             (-1.74692e-11 -2.97088e-12 0)             (-1.66393e-11 -3.73601e-12 0)             (-1.66393e-11 -3.73601e-12 0)             (-1.58e-11 -4.54751e-12 0)             (-1.49555e-11 -5.37713e-12 0)             (-1.41094e-11 -6.17741e-12 0)             (-1.41094e-11 -6.17741e-12 0)             (-1.32687e-11 -6.93158e-12 0)             (-1.24364e-11 -7.66378e-12 0)             (-1.16155e-11 -8.3702e-12 0)             (-1.08066e-11 -9.03834e-12 0)             (-1.08066e-11 -9.03834e-12 0)             (-1.00127e-11 -9.68143e-12 0)             (-9.23566e-12 -1.02797e-11 0)             (-8.4763e-12 -1.08232e-11 0)             (-7.73664e-12 -1.1323e-11 0)             (-7.01365e-12 -1.17678e-11 0)             (-7.01365e-12 -1.17678e-11 0)             (-6.30821e-12 -1.21481e-11 0)             (-5.61868e-12 -1.24741e-11 0)             (-4.94435e-12 -1.27557e-11 0)             (-4.28519e-12 -1.29793e-11 0)             (-3.64066e-12 -1.31524e-11 0)             (-3.01465e-12 -1.32805e-11 0)             (-2.4044e-12 -1.33682e-11 0)             (-1.80955e-12 -1.34288e-11 0)             (-1.23196e-12 -1.34613e-11 0)             (-6.69191e-13 -1.34597e-11 0)             (-1.22088e-13 -1.34261e-11 0)             (4.11042e-13 -1.33622e-11 0)             (9.28518e-13 -1.32627e-11 0)             (1.43295e-12 -1.31215e-11 0)             (1.92307e-12 -1.29459e-11 0)             (2.86228e-12 -1.24929e-11 0)             (3.31107e-12 -1.22268e-11 0)             (3.74567e-12 -1.19352e-11 0)             (4.16374e-12 -1.16248e-11 0)             (4.56883e-12 -1.12903e-11 0)             (5.33136e-12 -1.05776e-11 0)             (5.68918e-12 -1.02074e-11 0)             (6.03262e-12 -9.82603e-12 0)             (6.36139e-12 -9.42647e-12 0)             (6.9736e-12 -8.62144e-12 0)             (7.2604e-12 -8.21764e-12 0)             (7.79316e-12 -7.37418e-12 0)             (8.04109e-12 -6.95527e-12 0)             (8.27433e-12 -6.53366e-12 0)             (8.7023e-12 -5.69075e-12 0)             (9.08197e-12 -4.84499e-12 0)             (9.25297e-12 -4.41108e-12 0)             (9.56182e-12 -3.58283e-12 0)             (9.69838e-12 -3.16443e-12 0)             (9.94077e-12 -2.34619e-12 0)             (1.01427e-11 -1.52156e-12 0)             (1.03067e-11 -7.19561e-13 0)             (1.04338e-11 9.95286e-14 0)
          0.5             (2.33301e-13 4.67023e-13 0)             (3.63254e-13 -1.23236e-14 0)             (3.63254e-13 -1.23236e-14 0)             (5.43752e-13 -1.82584e-12 0)             (5.43752e-13 -1.82584e-12 0)             (6.05515e-13 -3.42068e-12 0)             (6.24292e-13 -4.78512e-12 0)             (6.24292e-13 -4.78512e-12 0)             (5.79474e-13 -5.91886e-12 0)             (4.77672e-13 -6.77603e-12 0)             (4.77672e-13 -6.77603e-12 0)             (3.26507e-13 -7.36529e-12 0)             (3.26507e-13 -7.36529e-12 0)             (1.38546e-13 -7.71186e-12 0)             (-7.25978e-14 -7.85067e-12 0)             (-7.25978e-14 -7.85067e-12 0)             (-2.98398e-13 -7.81313e-12 0)             (-5.27523e-13 -7.6282e-12 0)             (-7.54439e-13 -7.33061e-12 0)             (-7.54439e-13 -7.33061e-12 0)             (-9.69327e-13 -6.94505e-12 0)             (-1.16932e-12 -6.4969e-12 0)             (-1.16932e-12 -6.4969e-12 0)             (-1.35034e-12 -6.02016e-12 0)             (-1.51064e-12 -5.53687e-12 0)             (-1.64845e-12 -5.05996e-12 0)             (-1.64845e-12 -5.05996e-12 0)             (-1.76382e-12 -4.59975e-12 0)             (-1.85533e-12 -4.16921e-12 0)             (-1.92498e-12 -3.77703e-12 0)             (-1.97307e-12 -3.42231e-12 0)             (-1.97307e-12 -3.42231e-12 0)             (-2.00145e-12 -3.11395e-12 0)             (-2.01152e-12 -2.84696e-12 0)             (-2.00368e-12 -2.60969e-12 0)             (-1.98157e-12 -2.41766e-12 0)             (-1.94494e-12 -2.25946e-12 0)             (-1.94494e-12 -2.25946e-12 0)             (-1.8987e-12 -2.12646e-12 0)             (-1.84701e-12 -2.0251e-12 0)             (-1.78896e-12 -1.94123e-12 0)             (-1.72964e-12 -1.87675e-12 0)             (-1.67105e-12 -1.8265e-12 0)             (-1.61715e-12 -1.78382e-12 0)             (-1.56752e-12 -1.74975e-12 0)             (-1.52509e-12 -1.71166e-12 0)             (-1.49009e-12 -1.67322e-12 0)             (-1.46412e-12 -1.63914e-12 0)             (-1.44664e-12 -1.6184e-12 0)             (-1.43608e-12 -1.60387e-12 0)             (-1.43302e-12 -1.58885e-12 0)             (-1.43434e-12 -1.58337e-12 0)             (-1.44086e-12 -1.57961e-12 0)             (-1.46655e-12 -1.57807e-12 0)             (-1.48617e-12 -1.57307e-12 0)             (-1.50788e-12 -1.56015e-12 0)             (-1.53322e-12 -1.55516e-12 0)             (-1.56181e-12 -1.53669e-12 0)             (-1.62671e-12 -1.51738e-12 0)             (-1.6633e-12 -1.49508e-12 0)             (-1.70101e-12 -1.46426e-12 0)             (-1.74038e-12 -1.44118e-12 0)             (-1.81828e-12 -1.38062e-12 0)             (-1.85332e-12 -1.35497e-12 0)             (-1.91907e-12 -1.28369e-12 0)             (-1.94924e-12 -1.25373e-12 0)             (-1.97795e-12 -1.21324e-12 0)             (-2.02946e-12 -1.13955e-12 0)             (-2.07253e-12 -1.0454e-12 0)             (-2.09021e-12 -1.0029e-12 0)             (-2.11809e-12 -9.0069e-13 0)             (-2.12802e-12 -8.49563e-13 0)             (-2.13978e-12 -7.49789e-13 0)             (-2.14063e-12 -6.07539e-13 0)             (-2.12838e-12 -4.74708e-13 0)             (-2.10546e-12 -3.63422e-13 0)
          0.6             (-5.92114e-12 5.42775e-13 0)             (-5.73796e-12 -9.98391e-14 0)             (-5.73796e-12 -9.98391e-14 0)             (-5.42527e-12 -2.16272e-12 0)             (-5.42527e-12 -2.16272e-12 0)             (-5.22769e-12 -3.91463e-12 0)             (-5.0765e-12 -5.5962e-12 0)             (-5.0765e-12 -5.5962e-12 0)             (-4.99173e-12 -7.10157e-12 0)             (-4.96272e-12 -8.37107e-12 0)             (-4.96272e-12 -8.37107e-12 0)             (-4.98095e-12 -9.37436e-12 0)             (-4.98095e-12 -9.37436e-12 0)             (-5.03251e-12 -1.01148e-11 0)             (-5.10638e-12 -1.06023e-11 0)             (-5.10638e-12 -1.06023e-11 0)             (-5.1908e-12 -1.0851e-11 0)             (-5.27272e-12 -1.0906e-11 0)             (-5.34591e-12 -1.08189e-11 0)             (-5.34591e-12 -1.08189e-11 0)             (-5.40325e-12 -1.06364e-11 0)             (-5.43787e-12 -1.03764e-11 0)             (-5.43787e-12 -1.03764e-11 0)             (-5.44434e-12 -1.00587e-11 0)             (-5.423e-12 -9.71205e-12 0)             (-5.37098e-12 -9.34137e-12 0)             (-5.37098e-12 -9.34137e-12 0)             (-5.2887e-12 -8.96088e-12 0)             (-5.1783e-12 -8.58087e-12 0)             (-5.04283e-12 -8.19719e-12 0)             (-4.8867e-12 -7.81809e-12 0)             (-4.8867e-12 -7.81809e-12 0)             (-4.71307e-12 -7.45423e-12 0)             (-4.52865e-12 -7.10049e-12 0)             (-4.33402e-12 -6.75616e-12 0)             (-4.13546e-12 -6.43412e-12 0)             (-3.92822e-12 -6.1322e-12 0)             (-3.92822e-12 -6.1322e-12 0)             (-3.71565e-12 -5.83874e-12 0)             (-3.50192e-12 -5.56986e-12 0)             (-3.2881e-12 -5.32747e-12 0)             (-3.07695e-12 -5.10845e-12 0)             (-2.87161e-12 -4.94067e-12 0)             (-2.67352e-12 -4.8125e-12 0)             (-2.48456e-12 -4.68974e-12 0)             (-2.30315e-12 -4.58996e-12 0)             (-2.12874e-12 -4.52085e-12 0)             (-1.96196e-12 -4.45775e-12 0)             (-1.80371e-12 -4.39576e-12 0)             (-1.65345e-12 -4.33681e-12 0)             (-1.51296e-12 -4.28894e-12 0)             (-1.38251e-12 -4.25042e-12 0)             (-1.26184e-12 -4.21262e-12 0)             (-1.05068e-12 -4.11409e-12 0)             (-9.59866e-13 -4.05242e-12 0)             (-8.7796e-13 -3.97701e-12 0)             (-8.03697e-13 -3.89665e-12 0)             (-7.37836e-13 -3.82379e-12 0)             (-6.28419e-13 -3.64934e-12 0)             (-5.83984e-13 -3.56473e-12 0)             (-5.45787e-13 -3.47031e-12 0)             (-5.13266e-13 -3.37234e-12 0)             (-4.58175e-13 -3.17693e-12 0)             (-4.30664e-13 -3.08208e-12 0)             (-3.80726e-13 -2.88917e-12 0)             (-3.58011e-13 -2.78792e-12 0)             (-3.37144e-13 -2.67777e-12 0)             (-2.9706e-13 -2.47631e-12 0)             (-2.59043e-13 -2.25361e-12 0)             (-2.40436e-13 -2.1371e-12 0)             (-2.01667e-13 -1.88234e-12 0)             (-1.80892e-13 -1.75598e-12 0)             (-1.37256e-13 -1.50046e-12 0)             (-8.83905e-14 -1.21044e-12 0)             (-3.09395e-14 -8.83838e-13 0)             (3.33732e-14 -6.1538e-13 0)
          0.7             (-3.44195e-12 2.9865e-13 0)             (-3.04868e-12 -7.73449e-13 0)             (-3.04868e-12 -7.73449e-13 0)             (-2.70154e-12 -3.1774e-12 0)             (-2.70154e-12 -3.1774e-12 0)             (-2.50048e-12 -5.26496e-12 0)             (-2.38384e-12 -7.2946e-12 0)             (-2.38384e-12 -7.2946e-12 0)             (-2.37128e-12 -9.10364e-12 0)             (-2.44344e-12 -1.06043e-11 0)             (-2.44344e-12 -1.06043e-11 0)             (-2.58324e-12 -1.17748e-11 0)             (-2.58324e-12 -1.17748e-11 0)             (-2.76965e-12 -1.26365e-11 0)             (-2.98443e-12 -1.32166e-11 0)             (-2.98443e-12 -1.32166e-11 0)             (-3.21087e-12 -1.35354e-11 0)             (-3.42819e-12 -1.36327e-11 0)             (-3.62794e-12 -1.35542e-11 0)             (-3.62794e-12 -1.35542e-11 0)             (-3.79799e-12 -1.33387e-11 0)             (-3.9287e-12 -1.30281e-11 0)             (-3.9287e-12 -1.30281e-11 0)             (-4.01454e-12 -1.26511e-11 0)             (-4.05389e-12 -1.22401e-11 0)             (-4.04165e-12 -1.18077e-11 0)             (-4.04165e-12 -1.18077e-11 0)             (-3.98037e-12 -1.13625e-11 0)             (-3.86943e-12 -1.09154e-11 0)             (-3.71472e-12 -1.04822e-11 0)             (-3.51618e-12 -1.00701e-11 0)             (-3.51618e-12 -1.00701e-11 0)             (-3.27998e-12 -9.68267e-12 0)             (-3.01091e-12 -9.32161e-12 0)             (-2.71092e-12 -8.9915e-12 0)             (-2.38867e-12 -8.69809e-12 0)             (-2.04572e-12 -8.42131e-12 0)             (-2.04572e-12 -8.42131e-12 0)             (-1.68834e-12 -8.1698e-12 0)             (-1.31923e-12 -7.9358e-12 0)             (-9.4269e-13 -7.68692e-12 0)             (-5.63491e-13 -7.44565e-12 0)             (-1.85849e-13 -7.22385e-12 0)             (1.89296e-13 -7.01192e-12 0)             (5.58355e-13 -6.81881e-12 0)             (9.19765e-13 -6.63341e-12 0)             (1.27179e-12 -6.45892e-12 0)             (1.61367e-12 -6.29568e-12 0)             (1.94568e-12 -6.14048e-12 0)             (2.26858e-12 -6.00833e-12 0)             (2.58062e-12 -5.88044e-12 0)             (2.88206e-12 -5.74481e-12 0)             (3.17367e-12 -5.60587e-12 0)             (3.72439e-12 -5.31662e-12 0)             (3.9825e-12 -5.16379e-12 0)             (4.22953e-12 -5.02572e-12 0)             (4.46489e-12 -4.88273e-12 0)             (4.68735e-12 -4.73911e-12 0)             (5.09423e-12 -4.47362e-12 0)             (5.27906e-12 -4.33086e-12 0)             (5.4513e-12 -4.18885e-12 0)             (5.61071e-12 -4.04385e-12 0)             (5.90472e-12 -3.77154e-12 0)             (6.04485e-12 -3.62492e-12 0)             (6.3022e-12 -3.3428e-12 0)             (6.42001e-12 -3.19675e-12 0)             (6.53065e-12 -3.04824e-12 0)             (6.73347e-12 -2.75771e-12 0)             (6.91413e-12 -2.44942e-12 0)             (6.99718e-12 -2.29352e-12 0)             (7.15e-12 -1.9668e-12 0)             (7.22044e-12 -1.81959e-12 0)             (7.35238e-12 -1.48656e-12 0)             (7.47331e-12 -1.15323e-12 0)             (7.58557e-12 -8.19147e-13 0)             (7.69295e-12 -5.30272e-13 0)
          0.8             (1.0569e-11 -7.86234e-13 0)             (1.08251e-11 -1.50973e-12 0)             (1.08251e-11 -1.50973e-12 0)             (1.08315e-11 -1.16449e-12 0)             (1.08315e-11 -1.16449e-12 0)             (1.06647e-11 -6.45496e-13 0)             (1.03607e-11 -2.14605e-13 0)             (1.03607e-11 -2.14605e-13 0)             (9.92224e-12 1.11904e-13 0)             (9.38828e-12 3.05903e-13 0)             (9.38828e-12 3.05903e-13 0)             (8.79596e-12 3.67694e-13 0)             (8.79596e-12 3.67694e-13 0)             (8.1776e-12 2.91272e-13 0)             (7.55656e-12 7.4831e-14 0)             (7.55656e-12 7.4831e-14 0)             (6.95132e-12 -2.41704e-13 0)             (6.3784e-12 -6.26268e-13 0)             (5.84596e-12 -1.0555e-12 0)             (5.84596e-12 -1.0555e-12 0)             (5.35831e-12 -1.50865e-12 0)             (4.92165e-12 -1.97348e-12 0)             (4.92165e-12 -1.97348e-12 0)             (4.54129e-12 -2.43577e-12 0)             (4.21819e-12 -2.8934e-12 0)             (3.954e-12 -3.35053e-12 0)             (3.954e-12 -3.35053e-12 0)             (3.74464e-12 -3.7964e-12 0)             (3.58683e-12 -4.2285e-12 0)             (3.4763e-12 -4.63202e-12 0)             (3.40796e-12 -5.00679e-12 0)             (3.40796e-12 -5.00679e-12 0)             (3.37681e-12 -5.35103e-12 0)             (3.37951e-12 -5.65152e-12 0)             (3.41045e-12 -5.90833e-12 0)             (3.46367e-12 -6.12112e-12 0)             (3.53828e-12 -6.29133e-12 0)             (3.53828e-12 -6.29133e-12 0)             (3.62829e-12 -6.41997e-12 0)             (3.73163e-12 -6.50617e-12 0)             (3.84405e-12 -6.55371e-12 0)             (3.96229e-12 -6.57565e-12 0)             (4.08579e-12 -6.58334e-12 0)             (4.21087e-12 -6.57758e-12 0)             (4.33649e-12 -6.55013e-12 0)             (4.4613e-12 -6.50933e-12 0)             (4.58368e-12 -6.45259e-12 0)             (4.70135e-12 -6.36879e-12 0)             (4.81514e-12 -6.27049e-12 0)             (4.92309e-12 -6.15789e-12 0)             (5.02441e-12 -6.0211e-12 0)             (5.12003e-12 -5.86773e-12 0)             (5.20874e-12 -5.70997e-12 0)             (5.36407e-12 -5.3574e-12 0)             (5.43052e-12 -5.16853e-12 0)             (5.48938e-12 -4.97276e-12 0)             (5.5419e-12 -4.77142e-12 0)             (5.58716e-12 -4.57129e-12 0)             (5.65888e-12 -4.15767e-12 0)             (5.68483e-12 -3.949e-12 0)             (5.70414e-12 -3.73595e-12 0)             (5.71799e-12 -3.53274e-12 0)             (5.74592e-12 -3.13475e-12 0)             (5.76626e-12 -2.93868e-12 0)             (5.80282e-12 -2.56488e-12 0)             (5.8208e-12 -2.37485e-12 0)             (5.83666e-12 -2.20092e-12 0)             (5.86915e-12 -1.85014e-12 0)             (5.90284e-12 -1.51036e-12 0)             (5.92086e-12 -1.34671e-12 0)             (5.95991e-12 -1.01454e-12 0)             (5.98224e-12 -8.52025e-13 0)             (6.0314e-12 -5.29795e-13 0)             (6.08997e-12 -2.08341e-13 0)             (6.16273e-12 1.21028e-13 0)             (6.2511e-12 4.61893e-13 0)