# Probe 0 (15.31 -0.61 0)
# Probe 1 (15.31 -0.6 0)
# Probe 2 (15.31 -0.59 0)
# Probe 3 (15.31 -0.58 0)
# Probe 4 (15.31 -0.57 0)
# Probe 5 (15.31 -0.56 0)
# Probe 6 (15.31 -0.55 0)
# Probe 7 (15.31 -0.54 0)
# Probe 8 (15.31 -0.53 0)
# Probe 9 (15.31 -0.52 0)
# Probe 10 (15.31 -0.51 0)
# Probe 11 (15.31 -0.5 0)
# Probe 12 (15.31 -0.49 0)
# Probe 13 (15.31 -0.48 0)
# Probe 14 (15.31 -0.47 0)
# Probe 15 (15.31 -0.46 0)
# Probe 16 (15.31 -0.45 0)
# Probe 17 (15.31 -0.44 0)
# Probe 18 (15.31 -0.43 0)
# Probe 19 (15.31 -0.42 0)
# Probe 20 (15.31 -0.41 0)
# Probe 21 (15.31 -0.4 0)
# Probe 22 (15.31 -0.39 0)
# Probe 23 (15.31 -0.38 0)
# Probe 24 (15.31 -0.37 0)
# Probe 25 (15.31 -0.36 0)
# Probe 26 (15.31 -0.35 0)
# Probe 27 (15.31 -0.34 0)
# Probe 28 (15.31 -0.33 0)
# Probe 29 (15.31 -0.32 0)
# Probe 30 (15.31 -0.31 0)
# Probe 31 (15.31 -0.3 0)
# Probe 32 (15.31 -0.29 0)
# Probe 33 (15.31 -0.28 0)
# Probe 34 (15.31 -0.27 0)
# Probe 35 (15.31 -0.26 0)
# Probe 36 (15.31 -0.25 0)
# Probe 37 (15.31 -0.24 0)
# Probe 38 (15.31 -0.23 0)
# Probe 39 (15.31 -0.22 0)
# Probe 40 (15.31 -0.21 0)
# Probe 41 (15.31 -0.2 0)
# Probe 42 (15.31 -0.19 0)
# Probe 43 (15.31 -0.18 0)
# Probe 44 (15.31 -0.17 0)
# Probe 45 (15.31 -0.16 0)
# Probe 46 (15.31 -0.15 0)
# Probe 47 (15.31 -0.14 0)
# Probe 48 (15.31 -0.13 0)
# Probe 49 (15.31 -0.12 0)
# Probe 50 (15.31 -0.11 0)
# Probe 51 (15.31 -0.1 0)
# Probe 52 (15.31 -0.09 0)
# Probe 53 (15.31 -0.08 0)
# Probe 54 (15.31 -0.07 0)
# Probe 55 (15.31 -0.06 0)
# Probe 56 (15.31 -0.05 0)
# Probe 57 (15.31 -0.04 0)
# Probe 58 (15.31 -0.03 0)
# Probe 59 (15.31 -0.02 0)
# Probe 60 (15.31 -0.01 0)
# Probe 61 (15.31 0 0)
# Probe 62 (15.31 0.01 0)
# Probe 63 (15.31 0.02 0)
# Probe 64 (15.31 0.03 0)
# Probe 65 (15.31 0.04 0)
# Probe 66 (15.31 0.05 0)
# Probe 67 (15.31 0.06 0)
# Probe 68 (15.31 0.07 0)
# Probe 69 (15.31 0.08 0)
# Probe 70 (15.31 0.09 0)
# Probe 71 (15.31 0.1 0)
# Probe 72 (15.31 0.11 0)
# Probe 73 (15.31 0.12 0)
# Probe 74 (15.31 0.13 0)
# Probe 75 (15.31 0.14 0)
#       Probe             0             1             2             3             4             5             6             7             8             9            10            11            12            13            14            15            16            17            18            19            20            21            22            23            24            25            26            27            28            29            30            31            32            33            34            35            36            37            38            39            40            41            42            43            44            45            46            47            48            49            50            51            52            53            54            55            56            57            58            59            60            61            62            63            64            65            66            67            68            69            70            71            72            73            74            75
#        Time
          0.1             (1.33589e-11 1.00059e-12 0)             (1.33589e-11 1.00059e-12 0)             (1.14222e-11 1.54232e-12 0)             (1.14222e-11 1.54232e-12 0)             (1.14222e-11 1.54232e-12 0)             (9.90076e-12 -6.08539e-13 0)             (9.90076e-12 -6.08539e-13 0)             (8.6203e-12 -3.16604e-12 0)             (8.6203e-12 -3.16604e-12 0)             (7.81943e-12 -4.77467e-12 0)             (7.81943e-12 -4.77467e-12 0)             (7.43808e-12 -6.11237e-12 0)             (7.43808e-12 -6.11237e-12 0)             (7.43808e-12 -6.11237e-12 0)             (7.36118e-12 -7.16944e-12 0)             (7.36118e-12 -7.16944e-12 0)             (7.47136e-12 -8.0077e-12 0)             (7.47136e-12 -8.0077e-12 0)             (7.68699e-12 -8.67423e-12 0)             (7.68699e-12 -8.67423e-12 0)             (7.94612e-12 -9.19263e-12 0)             (7.94612e-12 -9.19263e-12 0)             (8.21289e-12 -9.59729e-12 0)             (8.21289e-12 -9.59729e-12 0)             (8.46013e-12 -9.91595e-12 0)             (8.67376e-12 -1.01725e-11 0)             (8.67376e-12 -1.01725e-11 0)             (8.84852e-12 -1.039e-11 0)             (8.84852e-12 -1.039e-11 0)             (8.98476e-12 -1.05725e-11 0)             (8.98476e-12 -1.05725e-11 0)             (9.08438e-12 -1.07327e-11 0)             (9.15061e-12 -1.08782e-11 0)             (9.15061e-12 -1.08782e-11 0)             (9.18848e-12 -1.09889e-11 0)             (9.20375e-12 -1.10761e-11 0)             (9.20375e-12 -1.10761e-11 0)             (9.20529e-12 -1.11594e-11 0)             (9.2009e-12 -1.12332e-11 0)             (9.2009e-12 -1.12332e-11 0)             (9.19995e-12 -1.12816e-11 0)             (9.20104e-12 -1.1298e-11 0)             (9.20525e-12 -1.12542e-11 0)             (9.20525e-12 -1.12542e-11 0)             (9.20606e-12 -1.11163e-11 0)             (9.1991e-12 -1.092e-11 0)             (9.18366e-12 -1.06998e-11 0)             (9.16096e-12 -1.04612e-11 0)             (9.13154e-12 -1.02043e-11 0)             (9.09673e-12 -9.92183e-12 0)             (9.05748e-12 -9.60893e-12 0)             (9.01905e-12 -9.2738e-12 0)             (8.98184e-12 -8.94545e-12 0)             (8.94619e-12 -8.63104e-12 0)             (8.91233e-12 -8.316e-12 0)             (8.88178e-12 -8.01094e-12 0)             (8.85189e-12 -7.73237e-12 0)             (8.82317e-12 -7.46382e-12 0)             (8.79507e-12 -7.20397e-12 0)             (8.74135e-12 -6.67601e-12 0)             (8.71458e-12 -6.423e-12 0)             (8.68901e-12 -6.16374e-12 0)             (8.63894e-12 -5.65931e-12 0)             (8.61545e-12 -5.39484e-12 0)             (8.5697e-12 -4.90104e-12 0)             (8.52691e-12 -4.40858e-12 0)             (8.50729e-12 -4.16775e-12 0)             (8.46969e-12 -3.67836e-12 0)             (8.43598e-12 -3.24375e-12 0)             (8.40501e-12 -2.85196e-12 0)             (8.37865e-12 -2.44386e-12 0)             (8.34326e-12 -1.87017e-12 0)             (8.32332e-12 -1.50993e-12 0)             (8.29752e-12 -1.00012e-12 0)             (8.27524e-12 -5.50155e-13 0)             (8.25008e-12 -2.97386e-14 0)
          0.2             (-8.09977e-12 2.69892e-13 0)             (-8.09977e-12 2.69892e-13 0)             (-5.95274e-12 2.08233e-12 0)             (-5.95274e-12 2.08233e-12 0)             (-5.95274e-12 2.08233e-12 0)             (-3.76e-12 4.17765e-12 0)             (-3.76e-12 4.17765e-12 0)             (-2.19786e-12 5.42488e-12 0)             (-2.19786e-12 5.42488e-12 0)             (-1.21063e-12 6.71605e-12 0)             (-1.21063e-12 6.71605e-12 0)             (-7.50567e-13 7.92706e-12 0)             (-7.50567e-13 7.92706e-12 0)             (-7.50567e-13 7.92706e-12 0)             (-6.92238e-13 9.17097e-12 0)             (-6.92238e-13 9.17097e-12 0)             (-9.12257e-13 1.03969e-11 0)             (-9.12257e-13 1.03969e-11 0)             (-1.30501e-12 1.15538e-11 0)             (-1.30501e-12 1.15538e-11 0)             (-1.78774e-12 1.26151e-11 0)             (-1.78774e-12 1.26151e-11 0)             (-2.29583e-12 1.35523e-11 0)             (-2.29583e-12 1.35523e-11 0)             (-2.79122e-12 1.42529e-11 0)             (-3.23476e-12 1.47404e-11 0)             (-3.23476e-12 1.47404e-11 0)             (-3.61985e-12 1.518e-11 0)             (-3.61985e-12 1.518e-11 0)             (-3.95161e-12 1.55842e-11 0)             (-3.95161e-12 1.55842e-11 0)             (-4.23616e-12 1.59351e-11 0)             (-4.47743e-12 1.62319e-11 0)             (-4.47743e-12 1.62319e-11 0)             (-4.68224e-12 1.64727e-11 0)             (-4.85385e-12 1.66708e-11 0)             (-4.85385e-12 1.66708e-11 0)             (-4.99822e-12 1.68405e-11 0)             (-5.11962e-12 1.69718e-11 0)             (-5.11962e-12 1.69718e-11 0)             (-5.22139e-12 1.70693e-11 0)             (-5.30641e-12 1.71257e-11 0)             (-5.37523e-12 1.71432e-11 0)             (-5.37523e-12 1.71432e-11 0)             (-5.42997e-12 1.71174e-11 0)             (-5.4724e-12 1.7052e-11 0)             (-5.50244e-12 1.69668e-11 0)             (-5.5215e-12 1.68523e-11 0)             (-5.52939e-12 1.6713e-11 0)             (-5.5277e-12 1.655e-11 0)             (-5.51647e-12 1.63617e-11 0)             (-5.49654e-12 1.61404e-11 0)             (-5.47025e-12 1.58782e-11 0)             (-5.43714e-12 1.5597e-11 0)             (-5.39871e-12 1.5295e-11 0)             (-5.35634e-12 1.49624e-11 0)             (-5.30961e-12 1.46183e-11 0)             (-5.26085e-12 1.42585e-11 0)             (-5.20922e-12 1.38803e-11 0)             (-5.10182e-12 1.30915e-11 0)             (-5.04644e-12 1.26812e-11 0)             (-4.99102e-12 1.22564e-11 0)             (-4.87801e-12 1.14036e-11 0)             (-4.82305e-12 1.09566e-11 0)             (-4.71662e-12 1.00464e-11 0)             (-4.61919e-12 9.15114e-12 0)             (-4.57317e-12 8.69897e-12 0)             (-4.48785e-12 7.85465e-12 0)             (-4.41133e-12 6.96904e-12 0)             (-4.34277e-12 6.11486e-12 0)             (-4.28146e-12 5.30204e-12 0)             (-4.2039e-12 4.15736e-12 0)             (-4.15989e-12 3.44202e-12 0)             (-4.10567e-12 2.42034e-12 0)             (-4.06111e-12 1.48709e-12 0)             (-4.01646e-12 3.7518e-13 0)
          0.3             (-4.99843e-10 -9.79911e-13 0)             (-4.99843e-10 -9.79911e-13 0)             (-4.99627e-10 -1.52576e-12 0)             (-4.99627e-10 -1.52576e-12 0)             (-4.99627e-10 -1.52576e-12 0)             (-4.98382e-10 -1.5726e-12 0)             (-4.98382e-10 -1.5726e-12 0)             (-4.97403e-10 -2.19111e-12 0)             (-4.97403e-10 -2.19111e-12 0)             (-4.96478e-10 -2.5132e-12 0)             (-4.96478e-10 -2.5132e-12 0)             (-4.95608e-10 -2.9451e-12 0)             (-4.95608e-10 -2.9451e-12 0)             (-4.95608e-10 -2.9451e-12 0)             (-4.94752e-10 -3.40386e-12 0)             (-4.94752e-10 -3.40386e-12 0)             (-4.93902e-10 -3.82278e-12 0)             (-4.93902e-10 -3.82278e-12 0)             (-4.93044e-10 -4.22986e-12 0)             (-4.93044e-10 -4.22986e-12 0)             (-4.92173e-10 -4.61656e-12 0)             (-4.92173e-10 -4.61656e-12 0)             (-4.91284e-10 -4.96195e-12 0)             (-4.91284e-10 -4.96195e-12 0)             (-4.90376e-10 -5.27158e-12 0)             (-4.89447e-10 -5.56486e-12 0)             (-4.89447e-10 -5.56486e-12 0)             (-4.88496e-10 -5.8548e-12 0)             (-4.88496e-10 -5.8548e-12 0)             (-4.87517e-10 -6.12709e-12 0)             (-4.87517e-10 -6.12709e-12 0)             (-4.86516e-10 -6.34802e-12 0)             (-4.85495e-10 -6.52843e-12 0)             (-4.85495e-10 -6.52843e-12 0)             (-4.84458e-10 -6.67903e-12 0)             (-4.8341e-10 -6.79341e-12 0)             (-4.8341e-10 -6.79341e-12 0)             (-4.82359e-10 -6.86652e-12 0)             (-4.8131e-10 -6.90639e-12 0)             (-4.8131e-10 -6.90639e-12 0)             (-4.80268e-10 -6.91495e-12 0)             (-4.79238e-10 -6.89121e-12 0)             (-4.78221e-10 -6.83926e-12 0)             (-4.78221e-10 -6.83926e-12 0)             (-4.77218e-10 -6.73954e-12 0)             (-4.76234e-10 -6.60365e-12 0)             (-4.75267e-10 -6.45685e-12 0)             (-4.74321e-10 -6.3102e-12 0)             (-4.73394e-10 -6.17468e-12 0)             (-4.72492e-10 -6.03698e-12 0)             (-4.71616e-10 -5.88893e-12 0)             (-4.70768e-10 -5.73328e-12 0)             (-4.69949e-10 -5.5824e-12 0)             (-4.6916e-10 -5.42986e-12 0)             (-4.68401e-10 -5.26349e-12 0)             (-4.67673e-10 -5.10225e-12 0)             (-4.66977e-10 -4.94283e-12 0)             (-4.6631e-10 -4.77969e-12 0)             (-4.65675e-10 -4.62291e-12 0)             (-4.64496e-10 -4.30216e-12 0)             (-4.63951e-10 -4.14636e-12 0)             (-4.63434e-10 -3.99559e-12 0)             (-4.62479e-10 -3.69374e-12 0)             (-4.62043e-10 -3.54218e-12 0)             (-4.6125e-10 -3.25649e-12 0)             (-4.60555e-10 -2.98069e-12 0)             (-4.60243e-10 -2.84037e-12 0)             (-4.59683e-10 -2.56664e-12 0)             (-4.59206e-10 -2.33727e-12 0)             (-4.58802e-10 -2.12871e-12 0)             (-4.58466e-10 -1.92091e-12 0)             (-4.58078e-10 -1.64498e-12 0)             (-4.57886e-10 -1.48531e-12 0)             (-4.57686e-10 -1.23588e-12 0)             (-4.57574e-10 -1.04198e-12 0)             (-4.57536e-10 -7.61584e-13 0)
          0.4             (-1.82578e-11 7.77495e-14 0)             (-1.82578e-11 7.77495e-14 0)             (-2.16284e-11 -2.27586e-12 0)             (-2.16284e-11 -2.27586e-12 0)             (-2.16284e-11 -2.27586e-12 0)             (-2.35171e-11 -6.04959e-12 0)             (-2.35171e-11 -6.04959e-12 0)             (-2.47666e-11 -8.34318e-12 0)             (-2.47666e-11 -8.34318e-12 0)             (-2.49874e-11 -1.02557e-11 0)             (-2.49874e-11 -1.02557e-11 0)             (-2.44517e-11 -1.2165e-11 0)             (-2.44517e-11 -1.2165e-11 0)             (-2.44517e-11 -1.2165e-11 0)             (-2.33894e-11 -1.39126e-11 0)             (-2.33894e-11 -1.39126e-11 0)             (-2.20163e-11 -1.53855e-11 0)             (-2.20163e-11 -1.53855e-11 0)             (-2.04996e-11 -1.65898e-11 0)             (-2.04996e-11 -1.65898e-11 0)             (-1.89483e-11 -1.7521e-11 0)             (-1.89483e-11 -1.7521e-11 0)             (-1.74263e-11 -1.82064e-11 0)             (-1.74263e-11 -1.82064e-11 0)             (-1.59749e-11 -1.86696e-11 0)             (-1.46115e-11 -1.8951e-11 0)             (-1.46115e-11 -1.8951e-11 0)             (-1.33399e-11 -1.91012e-11 0)             (-1.33399e-11 -1.91012e-11 0)             (-1.21544e-11 -1.9144e-11 0)             (-1.21544e-11 -1.9144e-11 0)             (-1.10493e-11 -1.90934e-11 0)             (-1.00137e-11 -1.8978e-11 0)             (-1.00137e-11 -1.8978e-11 0)             (-9.03917e-12 -1.88344e-11 0)             (-8.12046e-12 -1.86663e-11 0)             (-8.12046e-12 -1.86663e-11 0)             (-7.25227e-12 -1.84599e-11 0)             (-6.43149e-12 -1.82148e-11 0)             (-6.43149e-12 -1.82148e-11 0)             (-5.64953e-12 -1.79325e-11 0)             (-4.90129e-12 -1.7616e-11 0)             (-4.18811e-12 -1.72665e-11 0)             (-4.18811e-12 -1.72665e-11 0)             (-3.50603e-12 -1.68843e-11 0)             (-2.85503e-12 -1.64801e-11 0)             (-2.23081e-12 -1.60531e-11 0)             (-1.6348e-12 -1.56074e-11 0)             (-1.06496e-12 -1.51555e-11 0)             (-5.24288e-13 -1.46917e-11 0)             (-1.08903e-14 -1.42279e-11 0)             (4.7733e-13 -1.37869e-11 0)             (9.40259e-13 -1.3342e-11 0)             (1.37904e-12 -1.29001e-11 0)             (1.79348e-12 -1.24674e-11 0)             (2.18591e-12 -1.20338e-11 0)             (2.55528e-12 -1.16093e-11 0)             (2.90363e-12 -1.11901e-11 0)             (3.23104e-12 -1.07645e-11 0)             (3.82506e-12 -9.91959e-12 0)             (4.09382e-12 -9.50638e-12 0)             (4.34526e-12 -9.09749e-12 0)             (4.80595e-12 -8.2924e-12 0)             (5.01158e-12 -7.89592e-12 0)             (5.37639e-12 -7.15197e-12 0)             (5.68385e-12 -6.40833e-12 0)             (5.8183e-12 -6.06327e-12 0)             (6.05074e-12 -5.35619e-12 0)             (6.2397e-12 -4.71433e-12 0)             (6.39249e-12 -4.09973e-12 0)             (6.5117e-12 -3.5141e-12 0)             (6.63862e-12 -2.68061e-12 0)             (6.6935e-12 -2.14818e-12 0)             (6.73929e-12 -1.43338e-12 0)             (6.74961e-12 -7.61294e-13 0)             (6.72218e-12 8.72549e-14 0)
          0.5             (1.7239e-11 7.85622e-12 0)             (1.7239e-11 7.85622e-12 0)             (1.6097e-11 1.00757e-11 0)             (1.6097e-11 1.00757e-11 0)             (1.6097e-11 1.00757e-11 0)             (1.52698e-11 1.19269e-12 0)             (1.52698e-11 1.19269e-12 0)             (1.38796e-11 -5.19817e-12 0)             (1.38796e-11 -5.19817e-12 0)             (1.25969e-11 -1.09745e-11 0)             (1.25969e-11 -1.09745e-11 0)             (1.1287e-11 -1.56849e-11 0)             (1.1287e-11 -1.56849e-11 0)             (1.1287e-11 -1.56849e-11 0)             (1.00197e-11 -1.92755e-11 0)             (1.00197e-11 -1.92755e-11 0)             (8.82162e-12 -2.18746e-11 0)             (8.82162e-12 -2.18746e-11 0)             (7.71301e-12 -2.37211e-11 0)             (7.71301e-12 -2.37211e-11 0)             (6.71741e-12 -2.49968e-11 0)             (6.71741e-12 -2.49968e-11 0)             (5.85355e-12 -2.58598e-11 0)             (5.85355e-12 -2.58598e-11 0)             (5.12852e-12 -2.64534e-11 0)             (4.54074e-12 -2.689e-11 0)             (4.54074e-12 -2.689e-11 0)             (4.08627e-12 -2.72152e-11 0)             (4.08627e-12 -2.72152e-11 0)             (3.76516e-12 -2.74437e-11 0)             (3.76516e-12 -2.74437e-11 0)             (3.56501e-12 -2.75983e-11 0)             (3.47428e-12 -2.77063e-11 0)             (3.47428e-12 -2.77063e-11 0)             (3.48178e-12 -2.77728e-11 0)             (3.57254e-12 -2.78001e-11 0)             (3.57254e-12 -2.78001e-11 0)             (3.7325e-12 -2.77984e-11 0)             (3.95173e-12 -2.77699e-11 0)             (3.95173e-12 -2.77699e-11 0)             (4.2232e-12 -2.77045e-11 0)             (4.53628e-12 -2.75836e-11 0)             (4.87988e-12 -2.74214e-11 0)             (4.87988e-12 -2.74214e-11 0)             (5.24517e-12 -2.72186e-11 0)             (5.62473e-12 -2.69851e-11 0)             (6.01489e-12 -2.67164e-11 0)             (6.40921e-12 -2.6386e-11 0)             (6.80719e-12 -2.60094e-11 0)             (7.20312e-12 -2.55924e-11 0)             (7.59575e-12 -2.51248e-11 0)             (7.98223e-12 -2.46276e-11 0)             (8.3607e-12 -2.41015e-11 0)             (8.72982e-12 -2.3539e-11 0)             (9.08982e-12 -2.29496e-11 0)             (9.43863e-12 -2.23432e-11 0)             (9.77515e-12 -2.17165e-11 0)             (1.00998e-11 -2.10728e-11 0)             (1.04115e-11 -2.0421e-11 0)             (1.09941e-11 -1.90846e-11 0)             (1.12654e-11 -1.84132e-11 0)             (1.15242e-11 -1.7736e-11 0)             (1.2016e-11 -1.63937e-11 0)             (1.22406e-11 -1.57285e-11 0)             (1.26455e-11 -1.43911e-11 0)             (1.29964e-11 -1.30933e-11 0)             (1.31529e-11 -1.24565e-11 0)             (1.34279e-11 -1.11784e-11 0)             (1.36576e-11 -9.98943e-12 0)             (1.38481e-11 -8.83325e-12 0)             (1.40029e-11 -7.72375e-12 0)             (1.41723e-11 -6.11933e-12 0)             (1.425e-11 -5.12257e-12 0)             (1.43213e-11 -3.70002e-12 0)             (1.43489e-11 -2.38645e-12 0)             (1.43306e-11 -7.8257e-13 0)
          0.6             (1.03381e-11 6.58308e-12 0)             (1.03381e-11 6.58308e-12 0)             (1.02135e-11 7.07764e-12 0)             (1.02135e-11 7.07764e-12 0)             (1.02135e-11 7.07764e-12 0)             (9.59246e-12 -1.2597e-12 0)             (9.59246e-12 -1.2597e-12 0)             (8.28472e-12 -7.10235e-12 0)             (8.28472e-12 -7.10235e-12 0)             (6.88717e-12 -1.35153e-11 0)             (6.88717e-12 -1.35153e-11 0)             (5.25177e-12 -1.86319e-11 0)             (5.25177e-12 -1.86319e-11 0)             (5.25177e-12 -1.86319e-11 0)             (3.57328e-12 -2.26897e-11 0)             (3.57328e-12 -2.26897e-11 0)             (1.90539e-12 -2.58121e-11 0)             (1.90539e-12 -2.58121e-11 0)             (3.34785e-13 -2.8219e-11 0)             (3.34785e-13 -2.8219e-11 0)             (-1.09869e-12 -3.00781e-11 0)             (-1.09869e-12 -3.00781e-11 0)             (-2.36189e-12 -3.15445e-11 0)             (-2.36189e-12 -3.15445e-11 0)             (-3.44118e-12 -3.27438e-11 0)             (-4.33481e-12 -3.37435e-11 0)             (-4.33481e-12 -3.37435e-11 0)             (-5.04671e-12 -3.45791e-11 0)             (-5.04671e-12 -3.45791e-11 0)             (-5.58357e-12 -3.53012e-11 0)             (-5.58357e-12 -3.53012e-11 0)             (-5.9629e-12 -3.59236e-11 0)             (-6.1997e-12 -3.64588e-11 0)             (-6.1997e-12 -3.64588e-11 0)             (-6.31527e-12 -3.69275e-11 0)             (-6.32789e-12 -3.73265e-11 0)             (-6.32789e-12 -3.73265e-11 0)             (-6.26047e-12 -3.76658e-11 0)             (-6.1304e-12 -3.79424e-11 0)             (-6.1304e-12 -3.79424e-11 0)             (-5.94731e-12 -3.81439e-11 0)             (-5.72092e-12 -3.82534e-11 0)             (-5.46001e-12 -3.82564e-11 0)             (-5.46001e-12 -3.82564e-11 0)             (-5.16822e-12 -3.81333e-11 0)             (-4.84864e-12 -3.78963e-11 0)             (-4.50705e-12 -3.75604e-11 0)             (-4.15153e-12 -3.71046e-11 0)             (-3.78081e-12 -3.6566e-11 0)             (-3.40362e-12 -3.59788e-11 0)             (-3.02365e-12 -3.53478e-11 0)             (-2.64535e-12 -3.46743e-11 0)             (-2.2711e-12 -3.39521e-11 0)             (-1.90351e-12 -3.31872e-11 0)             (-1.54542e-12 -3.23861e-11 0)             (-1.19631e-12 -3.15573e-11 0)             (-8.5938e-13 -3.06986e-11 0)             (-5.3329e-13 -2.98124e-11 0)             (-2.20776e-13 -2.89088e-11 0)             (3.66059e-13 -2.70537e-11 0)             (6.39535e-13 -2.61133e-11 0)             (9.0234e-13 -2.51635e-11 0)             (1.41127e-12 -2.32613e-11 0)             (1.64357e-12 -2.23123e-11 0)             (2.06298e-12 -2.04101e-11 0)             (2.42661e-12 -1.85495e-11 0)             (2.58786e-12 -1.76283e-11 0)             (2.87032e-12 -1.58217e-11 0)             (3.10417e-12 -1.40766e-11 0)             (3.29549e-12 -1.2415e-11 0)             (3.44566e-12 -1.08216e-11 0)             (3.60384e-12 -8.53086e-12 0)             (3.67025e-12 -7.09725e-12 0)             (3.71884e-12 -5.09376e-12 0)             (3.7175e-12 -3.23985e-12 0)             (3.64914e-12 -1.04239e-12 0)
          0.7             (2.44671e-11 2.36723e-12 0)             (2.44671e-11 2.36723e-12 0)             (2.61482e-11 7.18717e-13 0)             (2.61482e-11 7.18717e-13 0)             (2.61482e-11 7.18717e-13 0)             (2.69533e-11 -2.22861e-12 0)             (2.69533e-11 -2.22861e-12 0)             (2.66505e-11 -2.1509e-12 0)             (2.66505e-11 -2.1509e-12 0)             (2.57306e-11 -3.77323e-12 0)             (2.57306e-11 -3.77323e-12 0)             (2.41725e-11 -5.22359e-12 0)             (2.41725e-11 -5.22359e-12 0)             (2.41725e-11 -5.22359e-12 0)             (2.23334e-11 -6.94533e-12 0)             (2.23334e-11 -6.94533e-12 0)             (2.03661e-11 -8.84921e-12 0)             (2.03661e-11 -8.84921e-12 0)             (1.84339e-11 -1.09001e-11 0)             (1.84339e-11 -1.09001e-11 0)             (1.66135e-11 -1.30131e-11 0)             (1.66135e-11 -1.30131e-11 0)             (1.4953e-11 -1.51146e-11 0)             (1.4953e-11 -1.51146e-11 0)             (1.34681e-11 -1.71482e-11 0)             (1.21533e-11 -1.90653e-11 0)             (1.21533e-11 -1.90653e-11 0)             (1.09992e-11 -2.0824e-11 0)             (1.09992e-11 -2.0824e-11 0)             (9.99602e-12 -2.24381e-11 0)             (9.99602e-12 -2.24381e-11 0)             (9.1259e-12 -2.39152e-11 0)             (8.36581e-12 -2.52524e-11 0)             (8.36581e-12 -2.52524e-11 0)             (7.69839e-12 -2.64483e-11 0)             (7.11091e-12 -2.74966e-11 0)             (7.11091e-12 -2.74966e-11 0)             (6.59055e-12 -2.83849e-11 0)             (6.13209e-12 -2.90825e-11 0)             (6.13209e-12 -2.90825e-11 0)             (5.73026e-12 -2.95872e-11 0)             (5.38134e-12 -2.99275e-11 0)             (5.07494e-12 -3.01472e-11 0)             (5.07494e-12 -3.01472e-11 0)             (4.80552e-12 -3.02674e-11 0)             (4.56395e-12 -3.0293e-11 0)             (4.34786e-12 -3.0225e-11 0)             (4.15303e-12 -3.00701e-11 0)             (3.97777e-12 -2.98379e-11 0)             (3.81908e-12 -2.9533e-11 0)             (3.67586e-12 -2.916e-11 0)             (3.54581e-12 -2.87253e-11 0)             (3.42912e-12 -2.82428e-11 0)             (3.32232e-12 -2.77161e-11 0)             (3.22615e-12 -2.7136e-11 0)             (3.14013e-12 -2.65204e-11 0)             (3.06073e-12 -2.58742e-11 0)             (2.99076e-12 -2.51968e-11 0)             (2.92705e-12 -2.45006e-11 0)             (2.81798e-12 -2.30329e-11 0)             (2.77233e-12 -2.22781e-11 0)             (2.73645e-12 -2.1516e-11 0)             (2.70838e-12 -1.99651e-11 0)             (2.69746e-12 -1.9183e-11 0)             (2.67237e-12 -1.76204e-11 0)             (2.64581e-12 -1.60638e-11 0)             (2.63083e-12 -1.52936e-11 0)             (2.59488e-12 -1.37576e-11 0)             (2.55378e-12 -1.23035e-11 0)             (2.50677e-12 -1.0883e-11 0)             (2.453e-12 -9.51491e-12 0)             (2.36085e-12 -7.57017e-12 0)             (2.28986e-12 -6.32321e-12 0)             (2.17326e-12 -4.58252e-12 0)             (2.0448e-12 -2.98888e-12 0)             (1.85461e-12 -1.04896e-12 0)
          0.8             (2.44937e-12 5.77126e-12 0)             (2.44937e-12 5.77126e-12 0)             (2.23433e-12 6.58566e-12 0)             (2.23433e-12 6.58566e-12 0)             (2.23433e-12 6.58566e-12 0)             (1.49158e-12 5.40018e-14 0)             (1.49158e-12 5.40018e-14 0)             (2.90895e-13 -5.1422e-12 0)             (2.90895e-13 -5.1422e-12 0)             (-1.05435e-12 -1.11486e-11 0)             (-1.05435e-12 -1.11486e-11 0)             (-2.68062e-12 -1.54748e-11 0)             (-2.68062e-12 -1.54748e-11 0)             (-2.68062e-12 -1.54748e-11 0)             (-4.36812e-12 -1.88949e-11 0)             (-4.36812e-12 -1.88949e-11 0)             (-6.08206e-12 -2.15207e-11 0)             (-6.08206e-12 -2.15207e-11 0)             (-7.72373e-12 -2.36255e-11 0)             (-7.72373e-12 -2.36255e-11 0)             (-9.24265e-12 -2.54043e-11 0)             (-9.24265e-12 -2.54043e-11 0)             (-1.05971e-11 -2.68944e-11 0)             (-1.05971e-11 -2.68944e-11 0)             (-1.17785e-11 -2.81253e-11 0)             (-1.27859e-11 -2.91502e-11 0)             (-1.27859e-11 -2.91502e-11 0)             (-1.36249e-11 -3.00168e-11 0)             (-1.36249e-11 -3.00168e-11 0)             (-1.43083e-11 -3.07776e-11 0)             (-1.43083e-11 -3.07776e-11 0)             (-1.48524e-11 -3.14566e-11 0)             (-1.52767e-11 -3.20332e-11 0)             (-1.52767e-11 -3.20332e-11 0)             (-1.56043e-11 -3.24872e-11 0)             (-1.58482e-11 -3.28458e-11 0)             (-1.58482e-11 -3.28458e-11 0)             (-1.60233e-11 -3.31067e-11 0)             (-1.61362e-11 -3.32503e-11 0)             (-1.61362e-11 -3.32503e-11 0)             (-1.61946e-11 -3.32868e-11 0)             (-1.62041e-11 -3.32314e-11 0)             (-1.61747e-11 -3.30964e-11 0)             (-1.61747e-11 -3.30964e-11 0)             (-1.61083e-11 -3.28766e-11 0)             (-1.60125e-11 -3.25588e-11 0)             (-1.58879e-11 -3.21642e-11 0)             (-1.57412e-11 -3.17198e-11 0)             (-1.55755e-11 -3.12432e-11 0)             (-1.54e-11 -3.07249e-11 0)             (-1.52137e-11 -3.0156e-11 0)             (-1.50202e-11 -2.95575e-11 0)             (-1.48221e-11 -2.89244e-11 0)             (-1.46233e-11 -2.8254e-11 0)             (-1.44231e-11 -2.75606e-11 0)             (-1.42243e-11 -2.68439e-11 0)             (-1.40291e-11 -2.60994e-11 0)             (-1.38353e-11 -2.53408e-11 0)             (-1.36475e-11 -2.45704e-11 0)             (-1.32851e-11 -2.29869e-11 0)             (-1.31122e-11 -2.21904e-11 0)             (-1.29377e-11 -2.13853e-11 0)             (-1.25697e-11 -1.97731e-11 0)             (-1.24011e-11 -1.89717e-11 0)             (-1.21004e-11 -1.73693e-11 0)             (-1.18477e-11 -1.57932e-11 0)             (-1.17398e-11 -1.50165e-11 0)             (-1.15596e-11 -1.34934e-11 0)             (-1.14254e-11 -1.20341e-11 0)             (-1.13314e-11 -1.06198e-11 0)             (-1.12767e-11 -9.24864e-12 0)             (-1.12617e-11 -7.32306e-12 0)             (-1.12902e-11 -6.09162e-12 0)             (-1.1384e-11 -4.38942e-12 0)             (-1.15296e-11 -2.81568e-12 0)             (-1.17875e-11 -9.23556e-13 0)