# Probe 0 (15.31 -0.61 0)
# Probe 1 (15.31 -0.6 0)
# Probe 2 (15.31 -0.59 0)
# Probe 3 (15.31 -0.58 0)
# Probe 4 (15.31 -0.57 0)
# Probe 5 (15.31 -0.56 0)
# Probe 6 (15.31 -0.55 0)
# Probe 7 (15.31 -0.54 0)
# Probe 8 (15.31 -0.53 0)
# Probe 9 (15.31 -0.52 0)
# Probe 10 (15.31 -0.51 0)
# Probe 11 (15.31 -0.5 0)
# Probe 12 (15.31 -0.49 0)
# Probe 13 (15.31 -0.48 0)
# Probe 14 (15.31 -0.47 0)
# Probe 15 (15.31 -0.46 0)
# Probe 16 (15.31 -0.45 0)
# Probe 17 (15.31 -0.44 0)
# Probe 18 (15.31 -0.43 0)
# Probe 19 (15.31 -0.42 0)
# Probe 20 (15.31 -0.41 0)
# Probe 21 (15.31 -0.4 0)
# Probe 22 (15.31 -0.39 0)
# Probe 23 (15.31 -0.38 0)
# Probe 24 (15.31 -0.37 0)
# Probe 25 (15.31 -0.36 0)
# Probe 26 (15.31 -0.35 0)
# Probe 27 (15.31 -0.34 0)
# Probe 28 (15.31 -0.33 0)
# Probe 29 (15.31 -0.32 0)
# Probe 30 (15.31 -0.31 0)
# Probe 31 (15.31 -0.3 0)
# Probe 32 (15.31 -0.29 0)
# Probe 33 (15.31 -0.28 0)
# Probe 34 (15.31 -0.27 0)
# Probe 35 (15.31 -0.26 0)
# Probe 36 (15.31 -0.25 0)
# Probe 37 (15.31 -0.24 0)
# Probe 38 (15.31 -0.23 0)
# Probe 39 (15.31 -0.22 0)
# Probe 40 (15.31 -0.21 0)
# Probe 41 (15.31 -0.2 0)
# Probe 42 (15.31 -0.19 0)
# Probe 43 (15.31 -0.18 0)
# Probe 44 (15.31 -0.17 0)
# Probe 45 (15.31 -0.16 0)
# Probe 46 (15.31 -0.15 0)
# Probe 47 (15.31 -0.14 0)
# Probe 48 (15.31 -0.13 0)
# Probe 49 (15.31 -0.12 0)
# Probe 50 (15.31 -0.11 0)
# Probe 51 (15.31 -0.1 0)
# Probe 52 (15.31 -0.09 0)
# Probe 53 (15.31 -0.08 0)
# Probe 54 (15.31 -0.07 0)
# Probe 55 (15.31 -0.06 0)
# Probe 56 (15.31 -0.05 0)
# Probe 57 (15.31 -0.04 0)
# Probe 58 (15.31 -0.03 0)
# Probe 59 (15.31 -0.02 0)
# Probe 60 (15.31 -0.01 0)
# Probe 61 (15.31 0 0)
# Probe 62 (15.31 0.01 0)
# Probe 63 (15.31 0.02 0)
# Probe 64 (15.31 0.03 0)
# Probe 65 (15.31 0.04 0)
# Probe 66 (15.31 0.05 0)
# Probe 67 (15.31 0.06 0)
# Probe 68 (15.31 0.07 0)
# Probe 69 (15.31 0.08 0)
# Probe 70 (15.31 0.09 0)
# Probe 71 (15.31 0.1 0)
# Probe 72 (15.31 0.11 0)
# Probe 73 (15.31 0.12 0)
# Probe 74 (15.31 0.13 0)
# Probe 75 (15.31 0.14 0)
#       Probe             0             1             2             3             4             5             6             7             8             9            10            11            12            13            14            15            16            17            18            19            20            21            22            23            24            25            26            27            28            29            30            31            32            33            34            35            36            37            38            39            40            41            42            43            44            45            46            47            48            49            50            51            52            53            54            55            56            57            58            59            60            61            62            63            64            65            66            67            68            69            70            71            72            73            74            75
#        Time
          0.1             (1.06431e-11 -1.72658e-12 0)             (1.00047e-11 -3.2376e-12 0)             (1.00047e-11 -3.2376e-12 0)             (9.69017e-12 -2.87112e-12 0)             (9.69017e-12 -2.87112e-12 0)             (9.55936e-12 -2.4315e-12 0)             (9.55737e-12 -1.83216e-12 0)             (9.55737e-12 -1.83216e-12 0)             (9.65246e-12 -1.20439e-12 0)             (9.81172e-12 -6.07462e-13 0)             (9.81172e-12 -6.07462e-13 0)             (1.00055e-11 -1.06371e-13 0)             (1.00055e-11 -1.06371e-13 0)             (1.02123e-11 2.56921e-13 0)             (1.04137e-11 4.64065e-13 0)             (1.04137e-11 4.64065e-13 0)             (1.05925e-11 5.24814e-13 0)             (1.07382e-11 4.49851e-13 0)             (1.08409e-11 2.54242e-13 0)             (1.08409e-11 2.54242e-13 0)             (1.08956e-11 -3.48617e-14 0)             (1.08988e-11 -3.82748e-13 0)             (1.08988e-11 -3.82748e-13 0)             (1.08488e-11 -7.56289e-13 0)             (1.07479e-11 -1.13948e-12 0)             (1.05954e-11 -1.53223e-12 0)             (1.05954e-11 -1.53223e-12 0)             (1.03965e-11 -1.93479e-12 0)             (1.01494e-11 -2.34142e-12 0)             (9.8609e-12 -2.75391e-12 0)             (9.53222e-12 -3.17497e-12 0)             (9.53222e-12 -3.17497e-12 0)             (9.16704e-12 -3.59088e-12 0)             (8.76936e-12 -3.98681e-12 0)             (8.33945e-12 -4.35632e-12 0)             (7.88141e-12 -4.70937e-12 0)             (7.39674e-12 -5.0356e-12 0)             (7.39674e-12 -5.0356e-12 0)             (6.88687e-12 -5.33619e-12 0)             (6.35781e-12 -5.63215e-12 0)             (5.81062e-12 -5.90708e-12 0)             (5.24935e-12 -6.16897e-12 0)             (4.67778e-12 -6.41827e-12 0)             (4.09852e-12 -6.64009e-12 0)             (3.51595e-12 -6.83452e-12 0)             (2.93482e-12 -7.02312e-12 0)             (2.35813e-12 -7.23113e-12 0)             (1.78794e-12 -7.43381e-12 0)             (1.22608e-12 -7.60923e-12 0)             (6.73599e-13 -7.75571e-12 0)             (1.30625e-13 -7.85341e-12 0)             (-4.01242e-13 -7.92217e-12 0)             (-9.18582e-13 -7.98057e-12 0)             (-1.90495e-12 -8.06789e-12 0)             (-2.37242e-12 -8.08914e-12 0)             (-2.8217e-12 -8.06164e-12 0)             (-3.25372e-12 -8.00573e-12 0)             (-3.66839e-12 -7.92942e-12 0)             (-4.44123e-12 -7.66469e-12 0)             (-4.80018e-12 -7.50272e-12 0)             (-5.14053e-12 -7.32217e-12 0)             (-5.46205e-12 -7.12823e-12 0)             (-6.05066e-12 -6.70042e-12 0)             (-6.31734e-12 -6.47737e-12 0)             (-6.80007e-12 -6.00414e-12 0)             (-7.01605e-12 -5.74293e-12 0)             (-7.21534e-12 -5.49376e-12 0)             (-7.56701e-12 -4.96125e-12 0)             (-7.8588e-12 -4.42002e-12 0)             (-7.98307e-12 -4.13766e-12 0)             (-8.19171e-12 -3.5833e-12 0)             (-8.27699e-12 -3.30635e-12 0)             (-8.41156e-12 -2.73978e-12 0)             (-8.50172e-12 -2.17037e-12 0)             (-8.55126e-12 -1.58447e-12 0)             (-8.56259e-12 -1.12384e-12 0)
          0.2             (2.41761e-11 -1.77281e-12 0)             (2.43021e-11 -3.48883e-12 0)             (2.43021e-11 -3.48883e-12 0)             (2.45963e-11 -3.42799e-12 0)             (2.45963e-11 -3.42799e-12 0)             (2.49101e-11 -3.31424e-12 0)             (2.52814e-11 -3.09817e-12 0)             (2.52814e-11 -3.09817e-12 0)             (2.57021e-11 -2.88183e-12 0)             (2.61672e-11 -2.67075e-12 0)             (2.61672e-11 -2.67075e-12 0)             (2.66738e-11 -2.48419e-12 0)             (2.66738e-11 -2.48419e-12 0)             (2.72181e-11 -2.33265e-12 0)             (2.77963e-11 -2.20666e-12 0)             (2.77963e-11 -2.20666e-12 0)             (2.84018e-11 -2.10356e-12 0)             (2.90321e-11 -2.02694e-12 0)             (2.96804e-11 -1.96195e-12 0)             (2.96804e-11 -1.96195e-12 0)             (3.03454e-11 -1.91401e-12 0)             (3.10224e-11 -1.88428e-12 0)             (3.10224e-11 -1.88428e-12 0)             (3.1708e-11 -1.86603e-12 0)             (3.2402e-11 -1.84417e-12 0)             (3.30991e-11 -1.81349e-12 0)             (3.30991e-11 -1.81349e-12 0)             (3.38012e-11 -1.77816e-12 0)             (3.45025e-11 -1.73643e-12 0)             (3.52028e-11 -1.68709e-12 0)             (3.59004e-11 -1.64049e-12 0)             (3.59004e-11 -1.64049e-12 0)             (3.65936e-11 -1.59456e-12 0)             (3.72804e-11 -1.57286e-12 0)             (3.79611e-11 -1.57158e-12 0)             (3.86358e-11 -1.56866e-12 0)             (3.93019e-11 -1.58165e-12 0)             (3.93019e-11 -1.58165e-12 0)             (3.99596e-11 -1.5933e-12 0)             (4.06068e-11 -1.60356e-12 0)             (4.12425e-11 -1.61842e-12 0)             (4.18674e-11 -1.64048e-12 0)             (4.24793e-11 -1.6614e-12 0)             (4.30778e-11 -1.67198e-12 0)             (4.36631e-11 -1.67798e-12 0)             (4.42336e-11 -1.68722e-12 0)             (4.47876e-11 -1.69279e-12 0)             (4.53261e-11 -1.68507e-12 0)             (4.58473e-11 -1.67121e-12 0)             (4.63494e-11 -1.64521e-12 0)             (4.68312e-11 -1.61544e-12 0)             (4.72929e-11 -1.58575e-12 0)             (4.77318e-11 -1.54956e-12 0)             (4.85401e-11 -1.47359e-12 0)             (4.891e-11 -1.4293e-12 0)             (4.92583e-11 -1.37896e-12 0)             (4.95848e-11 -1.33853e-12 0)             (4.98922e-11 -1.29813e-12 0)             (5.04511e-11 -1.20625e-12 0)             (5.07046e-11 -1.16187e-12 0)             (5.0941e-11 -1.11863e-12 0)             (5.11604e-11 -1.07583e-12 0)             (5.15497e-11 -9.69747e-13 0)             (5.17212e-11 -9.33132e-13 0)             (5.20224e-11 -8.42788e-13 0)             (5.21539e-11 -8.01288e-13 0)             (5.22723e-11 -7.55131e-13 0)             (5.24706e-11 -6.51959e-13 0)             (5.26228e-11 -5.50768e-13 0)             (5.26827e-11 -5.0817e-13 0)             (5.27725e-11 -4.085e-13 0)             (5.28038e-11 -3.7222e-13 0)             (5.28393e-11 -2.59065e-13 0)             (5.28435e-11 -1.74085e-13 0)             (5.28213e-11 -7.14984e-14 0)             (5.27746e-11 1.53633e-14 0)
          0.3             (1.02785e-11 -9.58483e-14 0)             (1.03433e-11 -1.34222e-14 0)             (1.03433e-11 -1.34222e-14 0)             (1.02026e-11 -9.42256e-14 0)             (1.02026e-11 -9.42256e-14 0)             (9.89702e-12 -4.81766e-13 0)             (9.47925e-12 -7.06798e-13 0)             (9.47925e-12 -7.06798e-13 0)             (8.97413e-12 -8.17053e-13 0)             (8.40293e-12 -7.83589e-13 0)             (8.40293e-12 -7.83589e-13 0)             (7.78152e-12 -6.10994e-13 0)             (7.78152e-12 -6.10994e-13 0)             (7.12536e-12 -2.96424e-13 0)             (6.4516e-12 1.43879e-13 0)             (6.4516e-12 1.43879e-13 0)             (5.77165e-12 7.01794e-13 0)             (5.09851e-12 1.35759e-12 0)             (4.44216e-12 2.08497e-12 0)             (4.44216e-12 2.08497e-12 0)             (3.81176e-12 2.85134e-12 0)             (3.21317e-12 3.63171e-12 0)             (3.21317e-12 3.63171e-12 0)             (2.6475e-12 4.41121e-12 0)             (2.11498e-12 5.17709e-12 0)             (1.61638e-12 5.92027e-12 0)             (1.61638e-12 5.92027e-12 0)             (1.15065e-12 6.62498e-12 0)             (7.16099e-13 7.28023e-12 0)             (3.11333e-13 7.87713e-12 0)             (-6.19134e-14 8.41338e-12 0)             (-6.19134e-14 8.41338e-12 0)             (-4.04051e-13 8.89201e-12 0)             (-7.1733e-13 9.29945e-12 0)             (-1.00177e-12 9.64166e-12 0)             (-1.2615e-12 9.9331e-12 0)             (-1.49826e-12 1.01649e-11 0)             (-1.49826e-12 1.01649e-11 0)             (-1.71313e-12 1.0343e-11 0)             (-1.91095e-12 1.04709e-11 0)             (-2.09156e-12 1.05477e-11 0)             (-2.26168e-12 1.05846e-11 0)             (-2.42505e-12 1.05808e-11 0)             (-2.58824e-12 1.05377e-11 0)             (-2.75125e-12 1.04585e-11 0)             (-2.91524e-12 1.03562e-11 0)             (-3.08093e-12 1.02178e-11 0)             (-3.24988e-12 1.00637e-11 0)             (-3.42245e-12 9.91254e-12 0)             (-3.59995e-12 9.74376e-12 0)             (-3.7837e-12 9.58136e-12 0)             (-3.97034e-12 9.41716e-12 0)             (-4.15975e-12 9.22449e-12 0)             (-4.53619e-12 8.80269e-12 0)             (-4.72092e-12 8.56937e-12 0)             (-4.90344e-12 8.32934e-12 0)             (-5.08127e-12 8.0733e-12 0)             (-5.25464e-12 7.81969e-12 0)             (-5.58793e-12 7.29151e-12 0)             (-5.74945e-12 7.01491e-12 0)             (-5.90549e-12 6.74133e-12 0)             (-6.05619e-12 6.45662e-12 0)             (-6.34991e-12 5.8921e-12 0)             (-6.49053e-12 5.59957e-12 0)             (-6.75296e-12 5.00934e-12 0)             (-6.87417e-12 4.71623e-12 0)             (-6.98867e-12 4.42387e-12 0)             (-7.19895e-12 3.82636e-12 0)             (-7.38309e-12 3.22645e-12 0)             (-7.46536e-12 2.93397e-12 0)             (-7.61025e-12 2.33684e-12 0)             (-7.67381e-12 2.04131e-12 0)             (-7.78181e-12 1.46044e-12 0)             (-7.86643e-12 8.65643e-13 0)             (-7.92707e-12 2.95651e-13 0)             (-7.96745e-12 -3.2053e-13 0)
          0.4             (1.49018e-11 -8.25319e-13 0)             (1.51358e-11 -1.46188e-12 0)             (1.51358e-11 -1.46188e-12 0)             (1.4866e-11 -1.4397e-12 0)             (1.4866e-11 -1.4397e-12 0)             (1.44109e-11 -1.5885e-12 0)             (1.37929e-11 -1.52969e-12 0)             (1.37929e-11 -1.52969e-12 0)             (1.30452e-11 -1.34147e-12 0)             (1.22011e-11 -9.71527e-13 0)             (1.22011e-11 -9.71527e-13 0)             (1.12928e-11 -4.38398e-13 0)             (1.12928e-11 -4.38398e-13 0)             (1.03447e-11 2.52356e-13 0)             (9.37933e-12 1.06104e-12 0)             (9.37933e-12 1.06104e-12 0)             (8.41082e-12 1.9633e-12 0)             (7.45523e-12 2.94739e-12 0)             (6.52369e-12 3.9829e-12 0)             (6.52369e-12 3.9829e-12 0)             (5.62345e-12 5.04499e-12 0)             (4.76103e-12 6.11805e-12 0)             (4.76103e-12 6.11805e-12 0)             (3.93805e-12 7.20099e-12 0)             (3.15429e-12 8.28758e-12 0)             (2.40738e-12 9.35984e-12 0)             (2.40738e-12 9.35984e-12 0)             (1.69727e-12 1.03983e-11 0)             (1.02252e-12 1.13835e-11 0)             (3.80028e-13 1.23038e-11 0)             (-2.30244e-13 1.31394e-11 0)             (-2.30244e-13 1.31394e-11 0)             (-8.11831e-13 1.38899e-11 0)             (-1.36706e-12 1.45552e-11 0)             (-1.89748e-12 1.51203e-11 0)             (-2.40436e-12 1.55784e-11 0)             (-2.89062e-12 1.59546e-11 0)             (-2.89062e-12 1.59546e-11 0)             (-3.35643e-12 1.62629e-11 0)             (-3.80629e-12 1.64909e-11 0)             (-4.24015e-12 1.66319e-11 0)             (-4.65974e-12 1.6668e-11 0)             (-5.06166e-12 1.66406e-11 0)             (-5.45091e-12 1.65901e-11 0)             (-5.82766e-12 1.65021e-11 0)             (-6.19406e-12 1.63859e-11 0)             (-6.55195e-12 1.62277e-11 0)             (-6.89922e-12 1.60343e-11 0)             (-7.23794e-12 1.58213e-11 0)             (-7.5666e-12 1.5572e-11 0)             (-7.88346e-12 1.52873e-11 0)             (-8.18922e-12 1.49755e-11 0)             (-8.48129e-12 1.46478e-11 0)             (-9.03271e-12 1.39053e-11 0)             (-9.29336e-12 1.3508e-11 0)             (-9.54599e-12 1.30989e-11 0)             (-9.79204e-12 1.2667e-11 0)             (-1.0031e-11 1.22242e-11 0)             (-1.0489e-11 1.13213e-11 0)             (-1.07082e-11 1.08517e-11 0)             (-1.09207e-11 1.03764e-11 0)             (-1.11264e-11 9.90061e-12 0)             (-1.1527e-11 8.93282e-12 0)             (-1.17204e-11 8.45681e-12 0)             (-1.20813e-11 7.4724e-12 0)             (-1.22479e-11 6.98486e-12 0)             (-1.2405e-11 6.49909e-12 0)             (-1.26935e-11 5.53939e-12 0)             (-1.29446e-11 4.59851e-12 0)             (-1.30563e-11 4.12415e-12 0)             (-1.32518e-11 3.2045e-12 0)             (-1.33362e-11 2.75713e-12 0)             (-1.34776e-11 1.88166e-12 0)             (-1.35832e-11 1.03977e-12 0)             (-1.3655e-11 2.38758e-13 0)             (-1.36937e-11 -6.75042e-13 0)
          0.5             (1.86035e-11 -1.4974e-13 0)             (1.88519e-11 1.90068e-12 0)             (1.88519e-11 1.90068e-12 0)             (1.87585e-11 5.11126e-12 0)             (1.87585e-11 5.11126e-12 0)             (1.85786e-11 7.08589e-12 0)             (1.8243e-11 8.76747e-12 0)             (1.8243e-11 8.76747e-12 0)             (1.77919e-11 1.00636e-11 0)             (1.72545e-11 1.10757e-11 0)             (1.72545e-11 1.10757e-11 0)             (1.66613e-11 1.18366e-11 0)             (1.66613e-11 1.18366e-11 0)             (1.60294e-11 1.24074e-11 0)             (1.53872e-11 1.28401e-11 0)             (1.53872e-11 1.28401e-11 0)             (1.47524e-11 1.31878e-11 0)             (1.41422e-11 1.34711e-11 0)             (1.35618e-11 1.37012e-11 0)             (1.35618e-11 1.37012e-11 0)             (1.30172e-11 1.38811e-11 0)             (1.25096e-11 1.40045e-11 0)             (1.25096e-11 1.40045e-11 0)             (1.20403e-11 1.40821e-11 0)             (1.1606e-11 1.41239e-11 0)             (1.12053e-11 1.41468e-11 0)             (1.12053e-11 1.41468e-11 0)             (1.0834e-11 1.41592e-11 0)             (1.049e-11 1.41552e-11 0)             (1.01703e-11 1.41478e-11 0)             (9.87397e-12 1.41395e-11 0)             (9.87397e-12 1.41395e-11 0)             (9.59787e-12 1.41292e-11 0)             (9.34188e-12 1.41208e-11 0)             (9.10579e-12 1.41091e-11 0)             (8.88815e-12 1.40934e-11 0)             (8.68688e-12 1.4069e-11 0)             (8.68688e-12 1.4069e-11 0)             (8.49749e-12 1.40383e-11 0)             (8.31824e-12 1.40019e-11 0)             (8.14496e-12 1.39486e-11 0)             (7.97482e-12 1.3875e-11 0)             (7.80512e-12 1.38006e-11 0)             (7.63385e-12 1.37169e-11 0)             (7.45887e-12 1.36155e-11 0)             (7.28141e-12 1.35323e-11 0)             (7.09855e-12 1.34435e-11 0)             (6.91326e-12 1.33472e-11 0)             (6.72518e-12 1.32509e-11 0)             (6.53429e-12 1.31416e-11 0)             (6.34204e-12 1.30253e-11 0)             (6.14738e-12 1.29037e-11 0)             (5.95242e-12 1.2778e-11 0)             (5.56336e-12 1.2468e-11 0)             (5.36991e-12 1.22901e-11 0)             (5.17906e-12 1.20932e-11 0)             (4.99098e-12 1.18885e-11 0)             (4.80568e-12 1.16559e-11 0)             (4.44598e-12 1.1144e-11 0)             (4.27259e-12 1.08611e-11 0)             (4.10416e-12 1.05581e-11 0)             (3.94112e-12 1.02322e-11 0)             (3.6184e-12 9.52938e-12 0)             (3.46057e-12 9.15816e-12 0)             (3.17147e-12 8.39606e-12 0)             (3.04192e-12 8.00281e-12 0)             (2.91941e-12 7.60248e-12 0)             (2.70094e-12 6.79081e-12 0)             (2.51754e-12 5.96687e-12 0)             (2.43854e-12 5.53626e-12 0)             (2.30494e-12 4.68736e-12 0)             (2.24915e-12 4.25789e-12 0)             (2.16122e-12 3.4264e-12 0)             (2.09999e-12 2.62303e-12 0)             (2.06338e-12 1.83856e-12 0)             (2.05257e-12 1.0864e-12 0)
          0.6             (2.19796e-11 6.94415e-13 0)             (2.23183e-11 2.89129e-12 0)             (2.23183e-11 2.89129e-12 0)             (2.21832e-11 4.94395e-12 0)             (2.21832e-11 4.94395e-12 0)             (2.18793e-11 6.18639e-12 0)             (2.13368e-11 7.39003e-12 0)             (2.13368e-11 7.39003e-12 0)             (2.06202e-11 8.32559e-12 0)             (1.97746e-11 9.06152e-12 0)             (1.97746e-11 9.06152e-12 0)             (1.88466e-11 9.58683e-12 0)             (1.88466e-11 9.58683e-12 0)             (1.78721e-11 9.94723e-12 0)             (1.68906e-11 1.01794e-11 0)             (1.68906e-11 1.01794e-11 0)             (1.59267e-11 1.03145e-11 0)             (1.50049e-11 1.03797e-11 0)             (1.41384e-11 1.03857e-11 0)             (1.41384e-11 1.03857e-11 0)             (1.33354e-11 1.03299e-11 0)             (1.25951e-11 1.0226e-11 0)             (1.25951e-11 1.0226e-11 0)             (1.19195e-11 1.01017e-11 0)             (1.13038e-11 9.95747e-12 0)             (1.07455e-11 9.81145e-12 0)             (1.07455e-11 9.81145e-12 0)             (1.02419e-11 9.66171e-12 0)             (9.79011e-12 9.50107e-12 0)             (9.38445e-12 9.34432e-12 0)             (9.01978e-12 9.19146e-12 0)             (9.01978e-12 9.19146e-12 0)             (8.69174e-12 9.03659e-12 0)             (8.39104e-12 8.86977e-12 0)             (8.11139e-12 8.67929e-12 0)             (7.84777e-12 8.47832e-12 0)             (7.59566e-12 8.26476e-12 0)             (7.59566e-12 8.26476e-12 0)             (7.35218e-12 8.05137e-12 0)             (7.11475e-12 7.85477e-12 0)             (6.88161e-12 7.67044e-12 0)             (6.65277e-12 7.51947e-12 0)             (6.42815e-12 7.42844e-12 0)             (6.21119e-12 7.39572e-12 0)             (6.00351e-12 7.38711e-12 0)             (5.80403e-12 7.38245e-12 0)             (5.61141e-12 7.37367e-12 0)             (5.42808e-12 7.34567e-12 0)             (5.25156e-12 7.30242e-12 0)             (5.08357e-12 7.2494e-12 0)             (4.92384e-12 7.19108e-12 0)             (4.76958e-12 7.13552e-12 0)             (4.62277e-12 7.06983e-12 0)             (4.34963e-12 6.92312e-12 0)             (4.22264e-12 6.84461e-12 0)             (4.10105e-12 6.76344e-12 0)             (3.98524e-12 6.67894e-12 0)             (3.87408e-12 6.58625e-12 0)             (3.66483e-12 6.39296e-12 0)             (3.56617e-12 6.27165e-12 0)             (3.47058e-12 6.15583e-12 0)             (3.37785e-12 6.01895e-12 0)             (3.18241e-12 5.71494e-12 0)             (3.07865e-12 5.56037e-12 0)             (2.8868e-12 5.19442e-12 0)             (2.80036e-12 5.0071e-12 0)             (2.71976e-12 4.80901e-12 0)             (2.57726e-12 4.38555e-12 0)             (2.45929e-12 3.93696e-12 0)             (2.41024e-12 3.69983e-12 0)             (2.32908e-12 3.23148e-12 0)             (2.29703e-12 2.97792e-12 0)             (2.2506e-12 2.45263e-12 0)             (2.2274e-12 1.93197e-12 0)             (2.22398e-12 1.37402e-12 0)             (2.24369e-12 8.67159e-13 0)
          0.7             (1.42704e-11 7.57091e-13 0)             (1.47686e-11 2.82434e-12 0)             (1.47686e-11 2.82434e-12 0)             (1.51442e-11 4.67521e-12 0)             (1.51442e-11 4.67521e-12 0)             (1.56606e-11 5.97074e-12 0)             (1.61658e-11 7.315e-12 0)             (1.61658e-11 7.315e-12 0)             (1.6665e-11 8.41873e-12 0)             (1.71254e-11 9.33732e-12 0)             (1.71254e-11 9.33732e-12 0)             (1.75262e-11 1.0056e-11 0)             (1.75262e-11 1.0056e-11 0)             (1.78472e-11 1.062e-11 0)             (1.80761e-11 1.10535e-11 0)             (1.80761e-11 1.10535e-11 0)             (1.82032e-11 1.13652e-11 0)             (1.82281e-11 1.15774e-11 0)             (1.81506e-11 1.16943e-11 0)             (1.81506e-11 1.16943e-11 0)             (1.79745e-11 1.17129e-11 0)             (1.77051e-11 1.16659e-11 0)             (1.77051e-11 1.16659e-11 0)             (1.73482e-11 1.1586e-11 0)             (1.69094e-11 1.1479e-11 0)             (1.63991e-11 1.13489e-11 0)             (1.63991e-11 1.13489e-11 0)             (1.58246e-11 1.11898e-11 0)             (1.51939e-11 1.09989e-11 0)             (1.45157e-11 1.07875e-11 0)             (1.37966e-11 1.05407e-11 0)             (1.37966e-11 1.05407e-11 0)             (1.30437e-11 1.02675e-11 0)             (1.22623e-11 9.992e-12 0)             (1.14596e-11 9.73146e-12 0)             (1.06458e-11 9.49359e-12 0)             (9.82743e-12 9.28084e-12 0)             (9.82743e-12 9.28084e-12 0)             (9.01292e-12 9.09796e-12 0)             (8.20749e-12 8.92592e-12 0)             (7.41699e-12 8.76484e-12 0)             (6.64271e-12 8.61215e-12 0)             (5.89037e-12 8.48573e-12 0)             (5.16188e-12 8.40924e-12 0)             (4.46578e-12 8.35755e-12 0)             (3.8036e-12 8.31087e-12 0)             (3.17413e-12 8.26714e-12 0)             (2.58087e-12 8.23154e-12 0)             (2.02449e-12 8.19395e-12 0)             (1.50288e-12 8.14641e-12 0)             (1.01671e-12 8.08052e-12 0)             (5.62641e-13 7.97926e-12 0)             (1.40413e-13 7.87572e-12 0)             (-6.15265e-13 7.62219e-12 0)             (-9.51086e-13 7.48686e-12 0)             (-1.2608e-12 7.33844e-12 0)             (-1.54645e-12 7.16662e-12 0)             (-1.80787e-12 6.99202e-12 0)             (-2.2604e-12 6.65431e-12 0)             (-2.45492e-12 6.47172e-12 0)             (-2.62874e-12 6.28567e-12 0)             (-2.78479e-12 6.08988e-12 0)             (-3.06876e-12 5.71655e-12 0)             (-3.2039e-12 5.51885e-12 0)             (-3.42195e-12 5.12532e-12 0)             (-3.50717e-12 4.92542e-12 0)             (-3.57619e-12 4.72842e-12 0)             (-3.6724e-12 4.33473e-12 0)             (-3.71569e-12 3.93061e-12 0)             (-3.71897e-12 3.72656e-12 0)             (-3.69141e-12 3.30408e-12 0)             (-3.66344e-12 3.09752e-12 0)             (-3.57766e-12 2.66374e-12 0)             (-3.45736e-12 2.21499e-12 0)             (-3.30671e-12 1.75033e-12 0)             (-3.12593e-12 1.38059e-12 0)
          0.8             (5.32388e-12 -1.6983e-13 0)             (5.46871e-12 2.13311e-13 0)             (5.46871e-12 2.13311e-13 0)             (5.53332e-12 7.2113e-13 0)             (5.53332e-12 7.2113e-13 0)             (5.77612e-12 9.39731e-13 0)             (6.05484e-12 1.44259e-12 0)             (6.05484e-12 1.44259e-12 0)             (6.38717e-12 1.95682e-12 0)             (6.73599e-12 2.53603e-12 0)             (6.73599e-12 2.53603e-12 0)             (7.08483e-12 3.14293e-12 0)             (7.08483e-12 3.14293e-12 0)             (7.41254e-12 3.75243e-12 0)             (7.70793e-12 4.35361e-12 0)             (7.70793e-12 4.35361e-12 0)             (7.95754e-12 4.90344e-12 0)             (8.15704e-12 5.39404e-12 0)             (8.29802e-12 5.82352e-12 0)             (8.29802e-12 5.82352e-12 0)             (8.37853e-12 6.16853e-12 0)             (8.3985e-12 6.45194e-12 0)             (8.3985e-12 6.45194e-12 0)             (8.35996e-12 6.6864e-12 0)             (8.26431e-12 6.86109e-12 0)             (8.11675e-12 6.98933e-12 0)             (8.11675e-12 6.98933e-12 0)             (7.9231e-12 7.07708e-12 0)             (7.68684e-12 7.12837e-12 0)             (7.41435e-12 7.14616e-12 0)             (7.11152e-12 7.1378e-12 0)             (7.11152e-12 7.1378e-12 0)             (6.78404e-12 7.10354e-12 0)             (6.43663e-12 7.04375e-12 0)             (6.07417e-12 6.97377e-12 0)             (5.7016e-12 6.89107e-12 0)             (5.32334e-12 6.79675e-12 0)             (5.32334e-12 6.79675e-12 0)             (4.9426e-12 6.68988e-12 0)             (4.56004e-12 6.57161e-12 0)             (4.18275e-12 6.45767e-12 0)             (3.81096e-12 6.3681e-12 0)             (3.453e-12 6.30301e-12 0)             (3.10923e-12 6.23837e-12 0)             (2.7813e-12 6.15719e-12 0)             (2.47084e-12 6.04355e-12 0)             (2.17536e-12 5.90556e-12 0)             (1.89578e-12 5.7537e-12 0)             (1.63219e-12 5.62817e-12 0)             (1.38712e-12 5.53523e-12 0)             (1.1617e-12 5.43589e-12 0)             (9.53099e-13 5.31322e-12 0)             (7.62078e-13 5.17192e-12 0)             (4.23358e-13 4.85457e-12 0)             (2.73959e-13 4.69358e-12 0)             (1.36164e-13 4.52692e-12 0)             (1.00914e-14 4.34063e-12 0)             (-1.04725e-13 4.1587e-12 0)             (-2.99669e-13 3.81071e-12 0)             (-3.81546e-13 3.63275e-12 0)             (-4.54149e-13 3.45251e-12 0)             (-5.16636e-13 3.27278e-12 0)             (-6.49908e-13 2.91728e-12 0)             (-7.27084e-13 2.7344e-12 0)             (-8.52129e-13 2.38507e-12 0)             (-9.00217e-13 2.21182e-12 0)             (-9.39668e-13 2.03112e-12 0)             (-9.92927e-13 1.68519e-12 0)             (-1.01208e-12 1.32838e-12 0)             (-1.01016e-12 1.15835e-12 0)             (-9.83932e-13 7.97981e-13 0)             (-9.60894e-13 6.10193e-13 0)             (-8.9468e-13 2.53862e-13 0)             (-8.03098e-13 -1.23879e-13 0)             (-6.90139e-13 -5.01657e-13 0)             (-5.58396e-13 -7.28351e-13 0)