# Probe 0 (15.31 -0.61 0)
# Probe 1 (15.31 -0.6 0)
# Probe 2 (15.31 -0.59 0)
# Probe 3 (15.31 -0.58 0)
# Probe 4 (15.31 -0.57 0)
# Probe 5 (15.31 -0.56 0)
# Probe 6 (15.31 -0.55 0)
# Probe 7 (15.31 -0.54 0)
# Probe 8 (15.31 -0.53 0)
# Probe 9 (15.31 -0.52 0)
# Probe 10 (15.31 -0.51 0)
# Probe 11 (15.31 -0.5 0)
# Probe 12 (15.31 -0.49 0)
# Probe 13 (15.31 -0.48 0)
# Probe 14 (15.31 -0.47 0)
# Probe 15 (15.31 -0.46 0)
# Probe 16 (15.31 -0.45 0)
# Probe 17 (15.31 -0.44 0)
# Probe 18 (15.31 -0.43 0)
# Probe 19 (15.31 -0.42 0)
# Probe 20 (15.31 -0.41 0)
# Probe 21 (15.31 -0.4 0)
# Probe 22 (15.31 -0.39 0)
# Probe 23 (15.31 -0.38 0)
# Probe 24 (15.31 -0.37 0)
# Probe 25 (15.31 -0.36 0)
# Probe 26 (15.31 -0.35 0)
# Probe 27 (15.31 -0.34 0)
# Probe 28 (15.31 -0.33 0)
# Probe 29 (15.31 -0.32 0)
# Probe 30 (15.31 -0.31 0)
# Probe 31 (15.31 -0.3 0)
# Probe 32 (15.31 -0.29 0)
# Probe 33 (15.31 -0.28 0)
# Probe 34 (15.31 -0.27 0)
# Probe 35 (15.31 -0.26 0)
# Probe 36 (15.31 -0.25 0)
# Probe 37 (15.31 -0.24 0)
# Probe 38 (15.31 -0.23 0)
# Probe 39 (15.31 -0.22 0)
# Probe 40 (15.31 -0.21 0)
# Probe 41 (15.31 -0.2 0)
# Probe 42 (15.31 -0.19 0)
# Probe 43 (15.31 -0.18 0)
# Probe 44 (15.31 -0.17 0)
# Probe 45 (15.31 -0.16 0)
# Probe 46 (15.31 -0.15 0)
# Probe 47 (15.31 -0.14 0)
# Probe 48 (15.31 -0.13 0)
# Probe 49 (15.31 -0.12 0)
# Probe 50 (15.31 -0.11 0)
# Probe 51 (15.31 -0.1 0)
# Probe 52 (15.31 -0.09 0)
# Probe 53 (15.31 -0.08 0)
# Probe 54 (15.31 -0.07 0)
# Probe 55 (15.31 -0.06 0)
# Probe 56 (15.31 -0.05 0)
# Probe 57 (15.31 -0.04 0)
# Probe 58 (15.31 -0.03 0)
# Probe 59 (15.31 -0.02 0)
# Probe 60 (15.31 -0.01 0)
# Probe 61 (15.31 0 0)
# Probe 62 (15.31 0.01 0)
# Probe 63 (15.31 0.02 0)
# Probe 64 (15.31 0.03 0)
# Probe 65 (15.31 0.04 0)
# Probe 66 (15.31 0.05 0)
# Probe 67 (15.31 0.06 0)
# Probe 68 (15.31 0.07 0)
# Probe 69 (15.31 0.08 0)
# Probe 70 (15.31 0.09 0)
# Probe 71 (15.31 0.1 0)
# Probe 72 (15.31 0.11 0)
# Probe 73 (15.31 0.12 0)
# Probe 74 (15.31 0.13 0)
# Probe 75 (15.31 0.14 0)
#       Probe             0             1             2             3             4             5             6             7             8             9            10            11            12            13            14            15            16            17            18            19            20            21            22            23            24            25            26            27            28            29            30            31            32            33            34            35            36            37            38            39            40            41            42            43            44            45            46            47            48            49            50            51            52            53            54            55            56            57            58            59            60            61            62            63            64            65            66            67            68            69            70            71            72            73            74            75
#        Time
          0.1             (1.94879e-11 -2.95284e-12 0)             (1.94879e-11 -2.95284e-12 0)             (1.64885e-11 -8.7488e-12 0)             (1.64885e-11 -8.7488e-12 0)             (1.64885e-11 -8.7488e-12 0)             (1.39909e-11 -1.23655e-11 0)             (1.39909e-11 -1.23655e-11 0)             (1.2466e-11 -1.27275e-11 0)             (1.2466e-11 -1.27275e-11 0)             (1.17545e-11 -1.17272e-11 0)             (1.17545e-11 -1.17272e-11 0)             (1.15949e-11 -1.06092e-11 0)             (1.15949e-11 -1.06092e-11 0)             (1.15949e-11 -1.06092e-11 0)             (1.18125e-11 -9.72533e-12 0)             (1.18125e-11 -9.72533e-12 0)             (1.2244e-11 -9.20339e-12 0)             (1.2244e-11 -9.20339e-12 0)             (1.27872e-11 -9.0273e-12 0)             (1.27872e-11 -9.0273e-12 0)             (1.33617e-11 -9.13232e-12 0)             (1.33617e-11 -9.13232e-12 0)             (1.39235e-11 -9.44735e-12 0)             (1.39235e-11 -9.44735e-12 0)             (1.44464e-11 -9.90446e-12 0)             (1.49135e-11 -1.04465e-11 0)             (1.49135e-11 -1.04465e-11 0)             (1.53194e-11 -1.10283e-11 0)             (1.53194e-11 -1.10283e-11 0)             (1.56684e-11 -1.16272e-11 0)             (1.56684e-11 -1.16272e-11 0)             (1.59614e-11 -1.22308e-11 0)             (1.62028e-11 -1.27924e-11 0)             (1.62028e-11 -1.27924e-11 0)             (1.64011e-11 -1.3281e-11 0)             (1.65627e-11 -1.36915e-11 0)             (1.65627e-11 -1.36915e-11 0)             (1.66953e-11 -1.40235e-11 0)             (1.68079e-11 -1.42896e-11 0)             (1.68079e-11 -1.42896e-11 0)             (1.69065e-11 -1.4478e-11 0)             (1.6997e-11 -1.45531e-11 0)             (1.70758e-11 -1.45327e-11 0)             (1.70758e-11 -1.45327e-11 0)             (1.71432e-11 -1.44585e-11 0)             (1.71989e-11 -1.43349e-11 0)             (1.72446e-11 -1.41771e-11 0)             (1.72811e-11 -1.39923e-11 0)             (1.73104e-11 -1.37767e-11 0)             (1.73316e-11 -1.35381e-11 0)             (1.73483e-11 -1.32764e-11 0)             (1.73594e-11 -1.29915e-11 0)             (1.73662e-11 -1.26995e-11 0)             (1.73695e-11 -1.23957e-11 0)             (1.73704e-11 -1.2076e-11 0)             (1.73699e-11 -1.17538e-11 0)             (1.73675e-11 -1.14225e-11 0)             (1.73643e-11 -1.10814e-11 0)             (1.73596e-11 -1.07494e-11 0)             (1.73486e-11 -1.00658e-11 0)             (1.73413e-11 -9.72482e-12 0)             (1.73337e-11 -9.37244e-12 0)             (1.73155e-11 -8.68669e-12 0)             (1.73039e-11 -8.33841e-12 0)             (1.72787e-11 -7.66307e-12 0)             (1.72497e-11 -7.01189e-12 0)             (1.72336e-11 -6.6846e-12 0)             (1.71986e-11 -6.01755e-12 0)             (1.71609e-11 -5.42089e-12 0)             (1.71205e-11 -4.85693e-12 0)             (1.70782e-11 -4.3007e-12 0)             (1.70133e-11 -3.50406e-12 0)             (1.69689e-11 -2.99322e-12 0)             (1.69043e-11 -2.26954e-12 0)             (1.68433e-11 -1.62326e-12 0)             (1.67664e-11 -7.76271e-13 0)
          0.2             (-3.52688e-10 1.6606e-12 0)             (-3.52688e-10 1.6606e-12 0)             (-3.53822e-10 1.27285e-12 0)             (-3.53822e-10 1.27285e-12 0)             (-3.53822e-10 1.27285e-12 0)             (-3.54343e-10 -9.10942e-13 0)             (-3.54343e-10 -9.10942e-13 0)             (-3.54645e-10 -8.17607e-13 0)             (-3.54645e-10 -8.17607e-13 0)             (-3.54774e-10 -4.92376e-13 0)             (-3.54774e-10 -4.92376e-13 0)             (-3.54798e-10 -3.32209e-13 0)             (-3.54798e-10 -3.32209e-13 0)             (-3.54798e-10 -3.32209e-13 0)             (-3.54772e-10 -2.29125e-13 0)             (-3.54772e-10 -2.29125e-13 0)             (-3.54735e-10 -1.09135e-13 0)             (-3.54735e-10 -1.09135e-13 0)             (-3.54693e-10 1.29061e-13 0)             (-3.54693e-10 1.29061e-13 0)             (-3.54648e-10 4.97644e-13 0)             (-3.54648e-10 4.97644e-13 0)             (-3.54592e-10 9.4102e-13 0)             (-3.54592e-10 9.4102e-13 0)             (-3.5453e-10 1.40428e-12 0)             (-3.54464e-10 1.85689e-12 0)             (-3.54464e-10 1.85689e-12 0)             (-3.54401e-10 2.27373e-12 0)             (-3.54401e-10 2.27373e-12 0)             (-3.54348e-10 2.65777e-12 0)             (-3.54348e-10 2.65777e-12 0)             (-3.5431e-10 3.02542e-12 0)             (-3.54289e-10 3.35378e-12 0)             (-3.54289e-10 3.35378e-12 0)             (-3.54293e-10 3.63387e-12 0)             (-3.54323e-10 3.87461e-12 0)             (-3.54323e-10 3.87461e-12 0)             (-3.54379e-10 4.08887e-12 0)             (-3.5446e-10 4.28502e-12 0)             (-3.5446e-10 4.28502e-12 0)             (-3.54561e-10 4.4628e-12 0)             (-3.54679e-10 4.62336e-12 0)             (-3.5481e-10 4.76769e-12 0)             (-3.5481e-10 4.76769e-12 0)             (-3.54951e-10 4.89461e-12 0)             (-3.551e-10 5.00106e-12 0)             (-3.55256e-10 5.09159e-12 0)             (-3.55415e-10 5.15901e-12 0)             (-3.55576e-10 5.19964e-12 0)             (-3.55735e-10 5.22116e-12 0)             (-3.55889e-10 5.22783e-12 0)             (-3.56037e-10 5.2124e-12 0)             (-3.56176e-10 5.17814e-12 0)             (-3.56311e-10 5.13065e-12 0)             (-3.56438e-10 5.05736e-12 0)             (-3.56557e-10 4.97909e-12 0)             (-3.5667e-10 4.89405e-12 0)             (-3.56778e-10 4.78173e-12 0)             (-3.56878e-10 4.66217e-12 0)             (-3.5706e-10 4.3946e-12 0)             (-3.57143e-10 4.25473e-12 0)             (-3.57219e-10 4.10186e-12 0)             (-3.57355e-10 3.76593e-12 0)             (-3.57415e-10 3.59189e-12 0)             (-3.57519e-10 3.24278e-12 0)             (-3.57606e-10 2.86185e-12 0)             (-3.57644e-10 2.67775e-12 0)             (-3.57707e-10 2.32198e-12 0)             (-3.57757e-10 1.92424e-12 0)             (-3.57796e-10 1.49652e-12 0)             (-3.57823e-10 1.0946e-12 0)             (-3.57847e-10 5.02979e-13 0)             (-3.57854e-10 1.19164e-13 0)             (-3.57855e-10 -4.66075e-13 0)             (-3.57844e-10 -1.04098e-12 0)             (-3.57819e-10 -1.78081e-12 0)
          0.3             (4.20805e-11 4.48156e-12 0)             (4.20805e-11 4.48156e-12 0)             (4.46071e-11 9.15184e-12 0)             (4.46071e-11 9.15184e-12 0)             (4.46071e-11 9.15184e-12 0)             (4.5825e-11 8.7976e-12 0)             (4.5825e-11 8.7976e-12 0)             (4.57856e-11 6.46469e-12 0)             (4.57856e-11 6.46469e-12 0)             (4.49519e-11 2.74833e-12 0)             (4.49519e-11 2.74833e-12 0)             (4.3572e-11 -8.65877e-13 0)             (4.3572e-11 -8.65877e-13 0)             (4.3572e-11 -8.65877e-13 0)             (4.18668e-11 -3.93361e-12 0)             (4.18668e-11 -3.93361e-12 0)             (3.99789e-11 -6.37552e-12 0)             (3.99789e-11 -6.37552e-12 0)             (3.80212e-11 -8.20426e-12 0)             (3.80212e-11 -8.20426e-12 0)             (3.60605e-11 -9.51654e-12 0)             (3.60605e-11 -9.51654e-12 0)             (3.41463e-11 -1.04458e-11 0)             (3.41463e-11 -1.04458e-11 0)             (3.23107e-11 -1.11292e-11 0)             (3.05488e-11 -1.16992e-11 0)             (3.05488e-11 -1.16992e-11 0)             (2.8862e-11 -1.22228e-11 0)             (2.8862e-11 -1.22228e-11 0)             (2.72447e-11 -1.27054e-11 0)             (2.72447e-11 -1.27054e-11 0)             (2.56979e-11 -1.3157e-11 0)             (2.42136e-11 -1.35745e-11 0)             (2.42136e-11 -1.35745e-11 0)             (2.27842e-11 -1.39369e-11 0)             (2.14046e-11 -1.42425e-11 0)             (2.14046e-11 -1.42425e-11 0)             (2.007e-11 -1.44915e-11 0)             (1.87769e-11 -1.47011e-11 0)             (1.87769e-11 -1.47011e-11 0)             (1.75271e-11 -1.48832e-11 0)             (1.63221e-11 -1.50315e-11 0)             (1.51625e-11 -1.51441e-11 0)             (1.51625e-11 -1.51441e-11 0)             (1.40487e-11 -1.52272e-11 0)             (1.29828e-11 -1.53047e-11 0)             (1.19642e-11 -1.53619e-11 0)             (1.09926e-11 -1.53703e-11 0)             (1.00693e-11 -1.53009e-11 0)             (9.198e-12 -1.51517e-11 0)             (8.37874e-12 -1.49801e-11 0)             (7.60932e-12 -1.48039e-11 0)             (6.88671e-12 -1.46171e-11 0)             (6.20897e-12 -1.44053e-11 0)             (5.57322e-12 -1.4171e-11 0)             (4.97909e-12 -1.39256e-11 0)             (4.4224e-12 -1.36608e-11 0)             (3.90405e-12 -1.3359e-11 0)             (3.41868e-12 -1.30453e-11 0)             (2.55008e-12 -1.23623e-11 0)             (2.16187e-12 -1.19911e-11 0)             (1.80421e-12 -1.15962e-11 0)             (1.17374e-12 -1.07613e-11 0)             (8.98864e-13 -1.03373e-11 0)             (4.20137e-13 -9.43731e-12 0)             (2.75442e-14 -8.52276e-12 0)             (-1.4001e-13 -8.07181e-12 0)             (-4.27127e-13 -7.1627e-12 0)             (-6.55229e-13 -6.33209e-12 0)             (-8.35887e-13 -5.49626e-12 0)             (-9.75239e-13 -4.71025e-12 0)             (-1.11917e-12 -3.58025e-12 0)             (-1.18008e-12 -2.86526e-12 0)             (-1.23035e-12 -1.85619e-12 0)             (-1.24078e-12 -9.55619e-13 0)             (-1.21087e-12 9.0497e-14 0)
          0.4             (3.04499e-11 -3.14761e-12 0)             (3.04499e-11 -3.14761e-12 0)             (3.3226e-11 -3.13388e-12 0)             (3.3226e-11 -3.13388e-12 0)             (3.3226e-11 -3.13388e-12 0)             (3.51539e-11 2.2087e-12 0)             (3.51539e-11 2.2087e-12 0)             (3.64531e-11 5.80884e-12 0)             (3.64531e-11 5.80884e-12 0)             (3.69196e-11 8.14706e-12 0)             (3.69196e-11 8.14706e-12 0)             (3.6611e-11 9.61717e-12 0)             (3.6611e-11 9.61717e-12 0)             (3.6611e-11 9.61717e-12 0)             (3.57039e-11 1.03677e-11 0)             (3.57039e-11 1.03677e-11 0)             (3.43803e-11 1.05226e-11 0)             (3.43803e-11 1.05226e-11 0)             (3.282e-11 1.02771e-11 0)             (3.282e-11 1.02771e-11 0)             (3.11427e-11 9.77437e-12 0)             (3.11427e-11 9.77437e-12 0)             (2.94393e-11 9.11736e-12 0)             (2.94393e-11 9.11736e-12 0)             (2.77541e-11 8.38948e-12 0)             (2.61032e-11 7.67551e-12 0)             (2.61032e-11 7.67551e-12 0)             (2.44968e-11 7.04523e-12 0)             (2.44968e-11 7.04523e-12 0)             (2.2948e-11 6.51382e-12 0)             (2.2948e-11 6.51382e-12 0)             (2.14679e-11 6.02601e-12 0)             (2.00696e-11 5.55588e-12 0)             (2.00696e-11 5.55588e-12 0)             (1.87559e-11 5.13256e-12 0)             (1.75236e-11 4.73193e-12 0)             (1.75236e-11 4.73193e-12 0)             (1.63671e-11 4.34641e-12 0)             (1.52735e-11 4.05028e-12 0)             (1.52735e-11 4.05028e-12 0)             (1.42337e-11 3.86315e-12 0)             (1.32393e-11 3.74457e-12 0)             (1.22827e-11 3.6783e-12 0)             (1.22827e-11 3.6783e-12 0)             (1.1359e-11 3.63508e-12 0)             (1.04674e-11 3.60798e-12 0)             (9.60358e-12 3.5915e-12 0)             (8.76998e-12 3.57483e-12 0)             (7.96498e-12 3.55755e-12 0)             (7.18662e-12 3.55015e-12 0)             (6.43545e-12 3.519e-12 0)             (5.71327e-12 3.43648e-12 0)             (5.02258e-12 3.32675e-12 0)             (4.36276e-12 3.20041e-12 0)             (3.73339e-12 3.06719e-12 0)             (3.13289e-12 2.92025e-12 0)             (2.5586e-12 2.78958e-12 0)             (2.01531e-12 2.66775e-12 0)             (1.498e-12 2.55854e-12 0)             (5.5021e-13 2.35279e-12 0)             (1.16236e-13 2.25563e-12 0)             (-2.90447e-13 2.14917e-12 0)             (-1.02752e-12 1.93557e-12 0)             (-1.35803e-12 1.82344e-12 0)             (-1.94712e-12 1.59208e-12 0)             (-2.4486e-12 1.35181e-12 0)             (-2.66802e-12 1.24628e-12 0)             (-3.05135e-12 1.0294e-12 0)             (-3.36553e-12 7.93311e-13 0)             (-3.6201e-12 5.9158e-13 0)             (-3.82034e-12 3.87557e-13 0)             (-4.03129e-12 1.09218e-13 0)             (-4.12339e-12 -6.46395e-14 0)             (-4.1987e-12 -2.71818e-13 0)             (-4.21398e-12 -4.74946e-13 0)             (-4.16037e-12 -6.79285e-13 0)
          0.5             (1.66682e-11 -3.59065e-12 0)             (1.66682e-11 -3.59065e-12 0)             (1.95668e-11 -3.53368e-12 0)             (1.95668e-11 -3.53368e-12 0)             (1.95668e-11 -3.53368e-12 0)             (2.15222e-11 1.93472e-12 0)             (2.15222e-11 1.93472e-12 0)             (2.27811e-11 5.11603e-12 0)             (2.27811e-11 5.11603e-12 0)             (2.30095e-11 7.35871e-12 0)             (2.30095e-11 7.35871e-12 0)             (2.23263e-11 8.77988e-12 0)             (2.23263e-11 8.77988e-12 0)             (2.23263e-11 8.77988e-12 0)             (2.09587e-11 9.53302e-12 0)             (2.09587e-11 9.53302e-12 0)             (1.91327e-11 9.73314e-12 0)             (1.91327e-11 9.73314e-12 0)             (1.70514e-11 9.60829e-12 0)             (1.70514e-11 9.60829e-12 0)             (1.48524e-11 9.35411e-12 0)             (1.48524e-11 9.35411e-12 0)             (1.26278e-11 9.06109e-12 0)             (1.26278e-11 9.06109e-12 0)             (1.04364e-11 8.7329e-12 0)             (8.31525e-12 8.34618e-12 0)             (8.31525e-12 8.34618e-12 0)             (6.28447e-12 7.90412e-12 0)             (6.28447e-12 7.90412e-12 0)             (4.35217e-12 7.41174e-12 0)             (4.35217e-12 7.41174e-12 0)             (2.51758e-12 6.87827e-12 0)             (7.79001e-13 6.29153e-12 0)             (7.79001e-13 6.29153e-12 0)             (-8.68646e-13 5.64447e-12 0)             (-2.42796e-12 4.97129e-12 0)             (-2.42796e-12 4.97129e-12 0)             (-3.90962e-12 4.33212e-12 0)             (-5.32918e-12 3.74705e-12 0)             (-5.32918e-12 3.74705e-12 0)             (-6.70017e-12 3.22409e-12 0)             (-8.02835e-12 2.79014e-12 0)             (-9.31671e-12 2.41847e-12 0)             (-9.31671e-12 2.41847e-12 0)             (-1.05679e-11 2.1336e-12 0)             (-1.17767e-11 1.94201e-12 0)             (-1.29455e-11 1.79354e-12 0)             (-1.40731e-11 1.67139e-12 0)             (-1.51591e-11 1.58512e-12 0)             (-1.62039e-11 1.52773e-12 0)             (-1.72061e-11 1.47821e-12 0)             (-1.81662e-11 1.44289e-12 0)             (-1.90841e-11 1.42089e-12 0)             (-1.99596e-11 1.40846e-12 0)             (-2.07937e-11 1.39402e-12 0)             (-2.15845e-11 1.37821e-12 0)             (-2.23364e-11 1.36407e-12 0)             (-2.30457e-11 1.34808e-12 0)             (-2.37177e-11 1.33054e-12 0)             (-2.49443e-11 1.27842e-12 0)             (-2.55023e-11 1.24722e-12 0)             (-2.60269e-11 1.21358e-12 0)             (-2.69786e-11 1.12197e-12 0)             (-2.74033e-11 1.07036e-12 0)             (-2.81572e-11 9.66089e-13 0)             (-2.87924e-11 8.3084e-13 0)             (-2.90689e-11 7.65942e-13 0)             (-2.95469e-11 6.53004e-13 0)             (-2.99323e-11 4.80121e-13 0)             (-3.02368e-11 3.26793e-13 0)             (-3.04687e-11 1.93999e-13 0)             (-3.06985e-11 -2.92159e-14 0)             (-3.07853e-11 -1.66679e-13 0)             (-3.08344e-11 -3.51774e-13 0)             (-3.08034e-11 -5.24798e-13 0)             (-3.06675e-11 -7.46618e-13 0)
          0.6             (1.64206e-12 -3.81522e-12 0)             (1.64206e-12 -3.81522e-12 0)             (1.1874e-12 -4.99586e-12 0)             (1.1874e-12 -4.99586e-12 0)             (1.1874e-12 -4.99586e-12 0)             (8.7459e-13 -1.71254e-12 0)             (8.7459e-13 -1.71254e-12 0)             (1.4002e-12 1.06928e-12 0)             (1.4002e-12 1.06928e-12 0)             (2.18228e-12 4.88369e-12 0)             (2.18228e-12 4.88369e-12 0)             (3.10736e-12 7.99911e-12 0)             (3.10736e-12 7.99911e-12 0)             (3.10736e-12 7.99911e-12 0)             (3.99096e-12 1.04965e-11 0)             (3.99096e-12 1.04965e-11 0)             (4.74432e-12 1.23207e-11 0)             (4.74432e-12 1.23207e-11 0)             (5.30953e-12 1.35711e-11 0)             (5.30953e-12 1.35711e-11 0)             (5.64723e-12 1.44249e-11 0)             (5.64723e-12 1.44249e-11 0)             (5.76468e-12 1.50548e-11 0)             (5.76468e-12 1.50548e-11 0)             (5.66808e-12 1.55204e-11 0)             (5.3711e-12 1.58447e-11 0)             (5.3711e-12 1.58447e-11 0)             (4.8985e-12 1.60127e-11 0)             (4.8985e-12 1.60127e-11 0)             (4.28575e-12 1.60044e-11 0)             (4.28575e-12 1.60044e-11 0)             (3.5692e-12 1.58571e-11 0)             (2.775e-12 1.56292e-11 0)             (2.775e-12 1.56292e-11 0)             (1.92629e-12 1.53648e-11 0)             (1.03594e-12 1.50901e-11 0)             (1.03594e-12 1.50901e-11 0)             (1.08519e-13 1.47876e-11 0)             (-8.56521e-13 1.4495e-11 0)             (-8.56521e-13 1.4495e-11 0)             (-1.84492e-12 1.42654e-11 0)             (-2.84784e-12 1.40864e-11 0)             (-3.85997e-12 1.39299e-11 0)             (-3.85997e-12 1.39299e-11 0)             (-4.87764e-12 1.38004e-11 0)             (-5.89032e-12 1.36747e-11 0)             (-6.89181e-12 1.35199e-11 0)             (-7.87364e-12 1.33522e-11 0)             (-8.83287e-12 1.3174e-11 0)             (-9.76617e-12 1.29882e-11 0)             (-1.06697e-11 1.27753e-11 0)             (-1.15401e-11 1.25107e-11 0)             (-1.23762e-11 1.22204e-11 0)             (-1.31763e-11 1.19156e-11 0)             (-1.39398e-11 1.1602e-11 0)             (-1.46688e-11 1.12847e-11 0)             (-1.53661e-11 1.09649e-11 0)             (-1.60274e-11 1.06445e-11 0)             (-1.66572e-11 1.03079e-11 0)             (-1.78165e-11 9.63172e-12 0)             (-1.83479e-11 9.28962e-12 0)             (-1.8853e-11 8.93856e-12 0)             (-1.97859e-11 8.24285e-12 0)             (-2.02048e-11 7.89605e-12 0)             (-2.09484e-11 7.21483e-12 0)             (-2.15762e-11 6.53071e-12 0)             (-2.18497e-11 6.21174e-12 0)             (-2.23238e-11 5.5717e-12 0)             (-2.27072e-11 4.94156e-12 0)             (-2.30097e-11 4.3194e-12 0)             (-2.32394e-11 3.75942e-12 0)             (-2.34668e-11 2.93854e-12 0)             (-2.35502e-11 2.4249e-12 0)             (-2.35897e-11 1.70932e-12 0)             (-2.35444e-11 1.03909e-12 0)             (-2.338e-11 2.24052e-13 0)
          0.7             (1.36548e-14 -4.00921e-12 0)             (1.36548e-14 -4.00921e-12 0)             (-8.71134e-13 -5.45257e-12 0)             (-8.71134e-13 -5.45257e-12 0)             (-8.71134e-13 -5.45257e-12 0)             (-1.01168e-12 -2.16701e-12 0)             (-1.01168e-12 -2.16701e-12 0)             (-3.9459e-13 1.32804e-12 0)             (-3.9459e-13 1.32804e-12 0)             (5.69502e-13 6.08803e-12 0)             (5.69502e-13 6.08803e-12 0)             (1.79293e-12 9.71794e-12 0)             (1.79293e-12 9.71794e-12 0)             (1.79293e-12 9.71794e-12 0)             (3.07073e-12 1.25242e-11 0)             (3.07073e-12 1.25242e-11 0)             (4.28905e-12 1.44363e-11 0)             (4.28905e-12 1.44363e-11 0)             (5.35849e-12 1.56188e-11 0)             (5.35849e-12 1.56188e-11 0)             (6.21469e-12 1.62694e-11 0)             (6.21469e-12 1.62694e-11 0)             (6.83472e-12 1.65609e-11 0)             (6.83472e-12 1.65609e-11 0)             (7.21352e-12 1.66121e-11 0)             (7.36672e-12 1.64955e-11 0)             (7.36672e-12 1.64955e-11 0)             (7.32091e-12 1.62152e-11 0)             (7.32091e-12 1.62152e-11 0)             (7.10641e-12 1.57936e-11 0)             (7.10641e-12 1.57936e-11 0)             (6.75333e-12 1.53226e-11 0)             (6.27958e-12 1.4862e-11 0)             (6.27958e-12 1.4862e-11 0)             (5.70325e-12 1.44165e-11 0)             (5.03977e-12 1.39815e-11 0)             (5.03977e-12 1.39815e-11 0)             (4.30514e-12 1.35562e-11 0)             (3.50421e-12 1.31575e-11 0)             (3.50421e-12 1.31575e-11 0)             (2.65539e-12 1.28244e-11 0)             (1.77277e-12 1.25483e-11 0)             (8.68481e-13 1.23142e-11 0)             (8.68481e-13 1.23142e-11 0)             (-4.86914e-14 1.21265e-11 0)             (-9.71253e-13 1.19646e-11 0)             (-1.89234e-12 1.17636e-11 0)             (-2.79914e-12 1.15084e-11 0)             (-3.68758e-12 1.12627e-11 0)             (-4.55736e-12 1.10123e-11 0)             (-5.40014e-12 1.07375e-11 0)             (-6.21496e-12 1.04295e-11 0)             (-7.0003e-12 1.01082e-11 0)             (-7.75269e-12 9.79447e-12 0)             (-8.47296e-12 9.4689e-12 0)             (-9.1579e-12 9.13754e-12 0)             (-9.81215e-12 8.80153e-12 0)             (-1.04311e-11 8.47639e-12 0)             (-1.10195e-11 8.1412e-12 0)             (-1.20997e-11 7.48017e-12 0)             (-1.25936e-11 7.15202e-12 0)             (-1.30675e-11 6.8326e-12 0)             (-1.39563e-11 6.21331e-12 0)             (-1.43528e-11 5.90771e-12 0)             (-1.50507e-11 5.31718e-12 0)             (-1.5629e-11 4.75678e-12 0)             (-1.58769e-11 4.49048e-12 0)             (-1.62968e-11 3.98221e-12 0)             (-1.66228e-11 3.47518e-12 0)             (-1.68656e-11 2.99922e-12 0)             (-1.70346e-11 2.56741e-12 0)             (-1.7166e-11 1.93936e-12 0)             (-1.71823e-11 1.54585e-12 0)             (-1.71186e-11 1.03514e-12 0)             (-1.69669e-11 5.33612e-13 0)             (-1.66537e-11 -1.1085e-13 0)
          0.8             (-4.2827e-13 -4.17341e-12 0)             (-4.2827e-13 -4.17341e-12 0)             (-1.48288e-12 -5.9495e-12 0)             (-1.48288e-12 -5.9495e-12 0)             (-1.48288e-12 -5.9495e-12 0)             (-1.57225e-12 -2.71227e-12 0)             (-1.57225e-12 -2.71227e-12 0)             (-9.38011e-13 1.26613e-12 0)             (-9.38011e-13 1.26613e-12 0)             (1.44851e-13 6.60014e-12 0)             (1.44851e-13 6.60014e-12 0)             (1.58807e-12 1.06103e-11 0)             (1.58807e-12 1.06103e-11 0)             (1.58807e-12 1.06103e-11 0)             (3.16735e-12 1.36879e-11 0)             (3.16735e-12 1.36879e-11 0)             (4.745e-12 1.57244e-11 0)             (4.745e-12 1.57244e-11 0)             (6.20278e-12 1.6894e-11 0)             (6.20278e-12 1.6894e-11 0)             (7.45969e-12 1.74244e-11 0)             (7.45969e-12 1.74244e-11 0)             (8.48214e-12 1.74981e-11 0)             (8.48214e-12 1.74981e-11 0)             (9.26429e-12 1.72303e-11 0)             (9.81255e-12 1.67347e-11 0)             (9.81255e-12 1.67347e-11 0)             (1.01372e-11 1.61048e-11 0)             (1.01372e-11 1.61048e-11 0)             (1.02563e-11 1.54015e-11 0)             (1.02563e-11 1.54015e-11 0)             (1.01945e-11 1.46784e-11 0)             (9.96744e-12 1.39616e-11 0)             (9.96744e-12 1.39616e-11 0)             (9.59938e-12 1.32726e-11 0)             (9.11586e-12 1.26473e-11 0)             (9.11586e-12 1.26473e-11 0)             (8.5346e-12 1.21178e-11 0)             (7.87799e-12 1.16707e-11 0)             (7.87799e-12 1.16707e-11 0)             (7.16464e-12 1.12896e-11 0)             (6.40878e-12 1.09543e-11 0)             (5.62277e-12 1.0632e-11 0)             (5.62277e-12 1.0632e-11 0)             (4.81802e-12 1.03315e-11 0)             (4.00416e-12 1.00745e-11 0)             (3.18492e-12 9.82911e-12 0)             (2.37062e-12 9.56655e-12 0)             (1.56571e-12 9.28846e-12 0)             (7.74013e-13 8.99089e-12 0)             (2.47358e-15 8.68782e-12 0)             (-7.4697e-13 8.38741e-12 0)             (-1.47318e-12 8.07532e-12 0)             (-2.17407e-12 7.75841e-12 0)             (-2.8479e-12 7.45468e-12 0)             (-3.49331e-12 7.14884e-12 0)             (-4.11324e-12 6.84567e-12 0)             (-4.70307e-12 6.56336e-12 0)             (-5.26644e-12 6.28309e-12 0)             (-6.30873e-12 5.72649e-12 0)             (-6.78785e-12 5.45423e-12 0)             (-7.25281e-12 5.17383e-12 0)             (-8.14887e-12 4.64175e-12 0)             (-8.54834e-12 4.37511e-12 0)             (-9.24498e-12 3.8672e-12 0)             (-9.81463e-12 3.39659e-12 0)             (-1.00538e-11 3.16472e-12 0)             (-1.0449e-11 2.74593e-12 0)             (-1.07424e-11 2.33903e-12 0)             (-1.09444e-11 1.97693e-12 0)             (-1.10647e-11 1.62523e-12 0)             (-1.11111e-11 1.1649e-12 0)             (-1.10634e-11 8.86787e-13 0)             (-1.08948e-11 5.06434e-13 0)             (-1.06297e-11 1.64551e-13 0)             (-1.01515e-11 -2.90691e-13 0)