# Probe 0 (15.31 -0.61 0)
# Probe 1 (15.31 -0.6 0)
# Probe 2 (15.31 -0.59 0)
# Probe 3 (15.31 -0.58 0)
# Probe 4 (15.31 -0.57 0)
# Probe 5 (15.31 -0.56 0)
# Probe 6 (15.31 -0.55 0)
# Probe 7 (15.31 -0.54 0)
# Probe 8 (15.31 -0.53 0)
# Probe 9 (15.31 -0.52 0)
# Probe 10 (15.31 -0.51 0)
# Probe 11 (15.31 -0.5 0)
# Probe 12 (15.31 -0.49 0)
# Probe 13 (15.31 -0.48 0)
# Probe 14 (15.31 -0.47 0)
# Probe 15 (15.31 -0.46 0)
# Probe 16 (15.31 -0.45 0)
# Probe 17 (15.31 -0.44 0)
# Probe 18 (15.31 -0.43 0)
# Probe 19 (15.31 -0.42 0)
# Probe 20 (15.31 -0.41 0)
# Probe 21 (15.31 -0.4 0)
# Probe 22 (15.31 -0.39 0)
# Probe 23 (15.31 -0.38 0)
# Probe 24 (15.31 -0.37 0)
# Probe 25 (15.31 -0.36 0)
# Probe 26 (15.31 -0.35 0)
# Probe 27 (15.31 -0.34 0)
# Probe 28 (15.31 -0.33 0)
# Probe 29 (15.31 -0.32 0)
# Probe 30 (15.31 -0.31 0)
# Probe 31 (15.31 -0.3 0)
# Probe 32 (15.31 -0.29 0)
# Probe 33 (15.31 -0.28 0)
# Probe 34 (15.31 -0.27 0)
# Probe 35 (15.31 -0.26 0)
# Probe 36 (15.31 -0.25 0)
# Probe 37 (15.31 -0.24 0)
# Probe 38 (15.31 -0.23 0)
# Probe 39 (15.31 -0.22 0)
# Probe 40 (15.31 -0.21 0)
# Probe 41 (15.31 -0.2 0)
# Probe 42 (15.31 -0.19 0)
# Probe 43 (15.31 -0.18 0)
# Probe 44 (15.31 -0.17 0)
# Probe 45 (15.31 -0.16 0)
# Probe 46 (15.31 -0.15 0)
# Probe 47 (15.31 -0.14 0)
# Probe 48 (15.31 -0.13 0)
# Probe 49 (15.31 -0.12 0)
# Probe 50 (15.31 -0.11 0)
# Probe 51 (15.31 -0.1 0)
# Probe 52 (15.31 -0.09 0)
# Probe 53 (15.31 -0.08 0)
# Probe 54 (15.31 -0.07 0)
# Probe 55 (15.31 -0.06 0)
# Probe 56 (15.31 -0.05 0)
# Probe 57 (15.31 -0.04 0)
# Probe 58 (15.31 -0.03 0)
# Probe 59 (15.31 -0.02 0)
# Probe 60 (15.31 -0.01 0)
# Probe 61 (15.31 0 0)
# Probe 62 (15.31 0.01 0)
# Probe 63 (15.31 0.02 0)
# Probe 64 (15.31 0.03 0)
# Probe 65 (15.31 0.04 0)
# Probe 66 (15.31 0.05 0)
# Probe 67 (15.31 0.06 0)
# Probe 68 (15.31 0.07 0)
# Probe 69 (15.31 0.08 0)
# Probe 70 (15.31 0.09 0)
# Probe 71 (15.31 0.1 0)
# Probe 72 (15.31 0.11 0)
# Probe 73 (15.31 0.12 0)
# Probe 74 (15.31 0.13 0)
# Probe 75 (15.31 0.14 0)
#       Probe             0             1             2             3             4             5             6             7             8             9            10            11            12            13            14            15            16            17            18            19            20            21            22            23            24            25            26            27            28            29            30            31            32            33            34            35            36            37            38            39            40            41            42            43            44            45            46            47            48            49            50            51            52            53            54            55            56            57            58            59            60            61            62            63            64            65            66            67            68            69            70            71            72            73            74            75
#        Time
          0.1             (-4.31571e-10 2.12907e-12 0)             (-4.31571e-10 2.12907e-12 0)             (-4.32343e-10 5.45841e-12 0)             (-4.32343e-10 5.45841e-12 0)             (-4.32343e-10 5.45841e-12 0)             (-4.3308e-10 6.28429e-12 0)             (-4.3308e-10 6.28429e-12 0)             (-4.33846e-10 5.84474e-12 0)             (-4.33846e-10 5.84474e-12 0)             (-4.34493e-10 5.70541e-12 0)             (-4.34493e-10 5.70541e-12 0)             (-4.35031e-10 5.62658e-12 0)             (-4.35031e-10 5.62658e-12 0)             (-4.35031e-10 5.62658e-12 0)             (-4.35497e-10 5.66938e-12 0)             (-4.35497e-10 5.66938e-12 0)             (-4.35935e-10 5.81276e-12 0)             (-4.35935e-10 5.81276e-12 0)             (-4.36353e-10 6.03705e-12 0)             (-4.36353e-10 6.03705e-12 0)             (-4.36763e-10 6.31788e-12 0)             (-4.36763e-10 6.31788e-12 0)             (-4.37174e-10 6.67261e-12 0)             (-4.37174e-10 6.67261e-12 0)             (-4.3759e-10 7.08895e-12 0)             (-4.38021e-10 7.51242e-12 0)             (-4.38021e-10 7.51242e-12 0)             (-4.38476e-10 7.93546e-12 0)             (-4.38476e-10 7.93546e-12 0)             (-4.38956e-10 8.33807e-12 0)             (-4.38956e-10 8.33807e-12 0)             (-4.39457e-10 8.70797e-12 0)             (-4.39977e-10 9.06453e-12 0)             (-4.39977e-10 9.06453e-12 0)             (-4.40515e-10 9.42733e-12 0)             (-4.41072e-10 9.79123e-12 0)             (-4.41072e-10 9.79123e-12 0)             (-4.4164e-10 1.01131e-11 0)             (-4.42211e-10 1.03973e-11 0)             (-4.42211e-10 1.03973e-11 0)             (-4.42779e-10 1.06766e-11 0)             (-4.43343e-10 1.09499e-11 0)             (-4.43901e-10 1.11864e-11 0)             (-4.43901e-10 1.11864e-11 0)             (-4.44449e-10 1.13506e-11 0)             (-4.44988e-10 1.14697e-11 0)             (-4.45513e-10 1.15745e-11 0)             (-4.4602e-10 1.16539e-11 0)             (-4.4651e-10 1.17204e-11 0)             (-4.4698e-10 1.17695e-11 0)             (-4.47431e-10 1.17909e-11 0)             (-4.47861e-10 1.17881e-11 0)             (-4.48269e-10 1.17538e-11 0)             (-4.48655e-10 1.16967e-11 0)             (-4.4902e-10 1.16145e-11 0)             (-4.49364e-10 1.15053e-11 0)             (-4.49687e-10 1.13776e-11 0)             (-4.4999e-10 1.12219e-11 0)             (-4.50273e-10 1.10472e-11 0)             (-4.50783e-10 1.06281e-11 0)             (-4.51013e-10 1.03912e-11 0)             (-4.51225e-10 1.01323e-11 0)             (-4.51602e-10 9.57223e-12 0)             (-4.51769e-10 9.26552e-12 0)             (-4.52062e-10 8.63722e-12 0)             (-4.52307e-10 7.94872e-12 0)             (-4.52413e-10 7.60415e-12 0)             (-4.52596e-10 6.89861e-12 0)             (-4.5274e-10 6.13784e-12 0)             (-4.52854e-10 5.36084e-12 0)             (-4.52939e-10 4.58701e-12 0)             (-4.53022e-10 3.45797e-12 0)             (-4.53052e-10 2.70933e-12 0)             (-4.53067e-10 1.58437e-12 0)             (-4.53051e-10 5.04168e-13 0)             (-4.52994e-10 -8.8897e-13 0)
          0.2             (2.34754e-11 4.17484e-12 0)             (2.34754e-11 4.17484e-12 0)             (2.39292e-11 6.72649e-12 0)             (2.39292e-11 6.72649e-12 0)             (2.39292e-11 6.72649e-12 0)             (2.37068e-11 3.7285e-12 0)             (2.37068e-11 3.7285e-12 0)             (2.29468e-11 1.02836e-12 0)             (2.29468e-11 1.02836e-12 0)             (2.18842e-11 -1.45907e-12 0)             (2.18842e-11 -1.45907e-12 0)             (2.06231e-11 -3.4964e-12 0)             (2.06231e-11 -3.4964e-12 0)             (2.06231e-11 -3.4964e-12 0)             (1.92477e-11 -4.99716e-12 0)             (1.92477e-11 -4.99716e-12 0)             (1.78103e-11 -6.05169e-12 0)             (1.78103e-11 -6.05169e-12 0)             (1.63654e-11 -6.7681e-12 0)             (1.63654e-11 -6.7681e-12 0)             (1.49533e-11 -7.24105e-12 0)             (1.49533e-11 -7.24105e-12 0)             (1.35967e-11 -7.55626e-12 0)             (1.35967e-11 -7.55626e-12 0)             (1.23093e-11 -7.78312e-12 0)             (1.10922e-11 -7.96341e-12 0)             (1.10922e-11 -7.96341e-12 0)             (9.94245e-12 -8.12323e-12 0)             (9.94245e-12 -8.12323e-12 0)             (8.85348e-12 -8.26702e-12 0)             (8.85348e-12 -8.26702e-12 0)             (7.81688e-12 -8.38218e-12 0)             (6.83045e-12 -8.46626e-12 0)             (6.83045e-12 -8.46626e-12 0)             (5.88855e-12 -8.51934e-12 0)             (4.99106e-12 -8.55276e-12 0)             (4.99106e-12 -8.55276e-12 0)             (4.13667e-12 -8.58748e-12 0)             (3.32237e-12 -8.65512e-12 0)             (3.32237e-12 -8.65512e-12 0)             (2.53383e-12 -8.73878e-12 0)             (1.77381e-12 -8.78864e-12 0)             (1.04145e-12 -8.81501e-12 0)             (1.04145e-12 -8.81501e-12 0)             (3.35798e-13 -8.82469e-12 0)             (-3.41975e-13 -8.81041e-12 0)             (-9.9358e-13 -8.75531e-12 0)             (-1.61681e-12 -8.6584e-12 0)             (-2.21112e-12 -8.53265e-12 0)             (-2.77502e-12 -8.37804e-12 0)             (-3.30839e-12 -8.202e-12 0)             (-3.81326e-12 -8.00806e-12 0)             (-4.28911e-12 -7.80888e-12 0)             (-4.73653e-12 -7.60438e-12 0)             (-5.15737e-12 -7.38537e-12 0)             (-5.55108e-12 -7.1686e-12 0)             (-5.9193e-12 -6.95373e-12 0)             (-6.26348e-12 -6.72909e-12 0)             (-6.58431e-12 -6.50521e-12 0)             (-7.16111e-12 -6.05963e-12 0)             (-7.41941e-12 -5.84081e-12 0)             (-7.65887e-12 -5.6338e-12 0)             (-8.08613e-12 -5.20548e-12 0)             (-8.27495e-12 -4.99956e-12 0)             (-8.61353e-12 -4.58896e-12 0)             (-8.9005e-12 -4.19821e-12 0)             (-9.02769e-12 -3.99587e-12 0)             (-9.25081e-12 -3.60713e-12 0)             (-9.43874e-12 -3.25529e-12 0)             (-9.59318e-12 -2.90486e-12 0)             (-9.72048e-12 -2.57512e-12 0)             (-9.86822e-12 -2.07319e-12 0)             (-9.94108e-12 -1.72699e-12 0)             (-1.00207e-11 -1.27995e-12 0)             (-1.00703e-11 -7.84371e-13 0)             (-1.01025e-11 -1.99662e-13 0)
          0.3             (-5.00764e-11 -3.08091e-13 0)             (-5.00764e-11 -3.08091e-13 0)             (-5.02522e-11 -7.89564e-13 0)             (-5.02522e-11 -7.89564e-13 0)             (-5.02522e-11 -7.89564e-13 0)             (-5.1187e-11 -1.11115e-12 0)             (-5.1187e-11 -1.11115e-12 0)             (-5.19697e-11 -1.47934e-12 0)             (-5.19697e-11 -1.47934e-12 0)             (-5.25982e-11 -1.79867e-12 0)             (-5.25982e-11 -1.79867e-12 0)             (-5.30623e-11 -2.01644e-12 0)             (-5.30623e-11 -2.01644e-12 0)             (-5.30623e-11 -2.01644e-12 0)             (-5.33559e-11 -2.25578e-12 0)             (-5.33559e-11 -2.25578e-12 0)             (-5.34998e-11 -2.48435e-12 0)             (-5.34998e-11 -2.48435e-12 0)             (-5.35107e-11 -2.68617e-12 0)             (-5.35107e-11 -2.68617e-12 0)             (-5.34058e-11 -2.86948e-12 0)             (-5.34058e-11 -2.86948e-12 0)             (-5.32025e-11 -3.02974e-12 0)             (-5.32025e-11 -3.02974e-12 0)             (-5.2923e-11 -3.15574e-12 0)             (-5.25893e-11 -3.24698e-12 0)             (-5.25893e-11 -3.24698e-12 0)             (-5.2224e-11 -3.30157e-12 0)             (-5.2224e-11 -3.30157e-12 0)             (-5.18434e-11 -3.31823e-12 0)             (-5.18434e-11 -3.31823e-12 0)             (-5.14639e-11 -3.30283e-12 0)             (-5.1095e-11 -3.28882e-12 0)             (-5.1095e-11 -3.28882e-12 0)             (-5.07427e-11 -3.33326e-12 0)             (-5.04081e-11 -3.43757e-12 0)             (-5.04081e-11 -3.43757e-12 0)             (-5.0095e-11 -3.61603e-12 0)             (-4.98017e-11 -3.8796e-12 0)             (-4.98017e-11 -3.8796e-12 0)             (-4.95341e-11 -4.1514e-12 0)             (-4.92938e-11 -4.36687e-12 0)             (-4.90872e-11 -4.53141e-12 0)             (-4.90872e-11 -4.53141e-12 0)             (-4.89168e-11 -4.63317e-12 0)             (-4.87791e-11 -4.65534e-12 0)             (-4.86722e-11 -4.6262e-12 0)             (-4.85925e-11 -4.57113e-12 0)             (-4.85396e-11 -4.49776e-12 0)             (-4.85111e-11 -4.40677e-12 0)             (-4.85051e-11 -4.31047e-12 0)             (-4.85217e-11 -4.20935e-12 0)             (-4.85571e-11 -4.0971e-12 0)             (-4.86121e-11 -3.98447e-12 0)             (-4.86815e-11 -3.86493e-12 0)             (-4.87671e-11 -3.74686e-12 0)             (-4.88644e-11 -3.63516e-12 0)             (-4.8973e-11 -3.51185e-12 0)             (-4.90899e-11 -3.38996e-12 0)             (-4.93473e-11 -3.15561e-12 0)             (-4.94844e-11 -3.03242e-12 0)             (-4.96255e-11 -2.91102e-12 0)             (-4.99147e-11 -2.66741e-12 0)             (-5.00623e-11 -2.55278e-12 0)             (-5.03576e-11 -2.32094e-12 0)             (-5.06511e-11 -2.08082e-12 0)             (-5.07938e-11 -1.96534e-12 0)             (-5.10733e-11 -1.70339e-12 0)             (-5.13416e-11 -1.50296e-12 0)             (-5.15942e-11 -1.2825e-12 0)             (-5.18323e-11 -1.07465e-12 0)             (-5.21617e-11 -7.5466e-13 0)             (-5.23624e-11 -5.62648e-13 0)             (-5.26357e-11 -2.64217e-13 0)             (-5.28745e-11 -2.46436e-15 0)             (-5.31504e-11 3.15805e-13 0)
          0.4             (2.49374e-11 -6.35629e-13 0)             (2.49374e-11 -6.35629e-13 0)             (2.69901e-11 2.72677e-12 0)             (2.69901e-11 2.72677e-12 0)             (2.69901e-11 2.72677e-12 0)             (2.76975e-11 7.8528e-12 0)             (2.76975e-11 7.8528e-12 0)             (2.7624e-11 9.86303e-12 0)             (2.7624e-11 9.86303e-12 0)             (2.67666e-11 1.13169e-11 0)             (2.67666e-11 1.13169e-11 0)             (2.54129e-11 1.20889e-11 0)             (2.54129e-11 1.20889e-11 0)             (2.54129e-11 1.20889e-11 0)             (2.37557e-11 1.2234e-11 0)             (2.37557e-11 1.2234e-11 0)             (2.19559e-11 1.19598e-11 0)             (2.19559e-11 1.19598e-11 0)             (2.01136e-11 1.14089e-11 0)             (2.01136e-11 1.14089e-11 0)             (1.82824e-11 1.06796e-11 0)             (1.82824e-11 1.06796e-11 0)             (1.64898e-11 9.88146e-12 0)             (1.64898e-11 9.88146e-12 0)             (1.47412e-11 9.08518e-12 0)             (1.30308e-11 8.33603e-12 0)             (1.30308e-11 8.33603e-12 0)             (1.13496e-11 7.68263e-12 0)             (1.13496e-11 7.68263e-12 0)             (9.68891e-12 7.12342e-12 0)             (9.68891e-12 7.12342e-12 0)             (8.0432e-12 6.62454e-12 0)             (6.40925e-12 6.17559e-12 0)             (6.40925e-12 6.17559e-12 0)             (4.78768e-12 5.76454e-12 0)             (3.17914e-12 5.38352e-12 0)             (3.17914e-12 5.38352e-12 0)             (1.58572e-12 5.01226e-12 0)             (1.4415e-14 4.58561e-12 0)             (1.4415e-14 4.58561e-12 0)             (-1.52949e-12 4.1201e-12 0)             (-3.04174e-12 3.66174e-12 0)             (-4.51341e-12 3.23111e-12 0)             (-4.51341e-12 3.23111e-12 0)             (-5.93924e-12 2.85354e-12 0)             (-7.3195e-12 2.54116e-12 0)             (-8.6517e-12 2.28282e-12 0)             (-9.93304e-12 2.06427e-12 0)             (-1.11622e-11 1.87881e-12 0)             (-1.23361e-11 1.70438e-12 0)             (-1.34538e-11 1.5463e-12 0)             (-1.45189e-11 1.40853e-12 0)             (-1.55286e-11 1.26768e-12 0)             (-1.6486e-11 1.13958e-12 0)             (-1.73918e-11 1.0196e-12 0)             (-1.82487e-11 8.96554e-13 0)             (-1.90578e-11 7.88834e-13 0)             (-1.98199e-11 6.8974e-13 0)             (-2.05362e-11 5.89427e-13 0)             (-2.18427e-11 4.21612e-13 0)             (-2.24357e-11 3.47564e-13 0)             (-2.29907e-11 2.79829e-13 0)             (-2.39965e-11 1.58117e-13 0)             (-2.44495e-11 1.02534e-13 0)             (-2.5262e-11 1.73286e-14 0)             (-2.5962e-11 -5.83678e-14 0)             (-2.62716e-11 -8.7838e-14 0)             (-2.68206e-11 -1.40666e-13 0)             (-2.72845e-11 -1.68304e-13 0)             (-2.76702e-11 -2.21374e-13 0)             (-2.79882e-11 -2.26079e-13 0)             (-2.8355e-11 -2.31364e-13 0)             (-2.85376e-11 -2.11261e-13 0)             (-2.87329e-11 -1.86536e-13 0)             (-2.88509e-11 -1.40146e-13 0)             (-2.89162e-11 -5.48921e-14 0)
          0.5             (2.76372e-11 2.75019e-13 0)             (2.76372e-11 2.75019e-13 0)             (2.96858e-11 4.09804e-12 0)             (2.96858e-11 4.09804e-12 0)             (2.96858e-11 4.09804e-12 0)             (2.92765e-11 8.26269e-12 0)             (2.92765e-11 8.26269e-12 0)             (2.84084e-11 9.56234e-12 0)             (2.84084e-11 9.56234e-12 0)             (2.6896e-11 1.0677e-11 0)             (2.6896e-11 1.0677e-11 0)             (2.50912e-11 1.12224e-11 0)             (2.50912e-11 1.12224e-11 0)             (2.50912e-11 1.12224e-11 0)             (2.31393e-11 1.11958e-11 0)             (2.31393e-11 1.11958e-11 0)             (2.1157e-11 1.07771e-11 0)             (2.1157e-11 1.07771e-11 0)             (1.92166e-11 1.01284e-11 0)             (1.92166e-11 1.01284e-11 0)             (1.73566e-11 9.35321e-12 0)             (1.73566e-11 9.35321e-12 0)             (1.55887e-11 8.55568e-12 0)             (1.55887e-11 8.55568e-12 0)             (1.39049e-11 7.78856e-12 0)             (1.22916e-11 7.0662e-12 0)             (1.22916e-11 7.0662e-12 0)             (1.07378e-11 6.38996e-12 0)             (1.07378e-11 6.38996e-12 0)             (9.23523e-12 5.76333e-12 0)             (9.23523e-12 5.76333e-12 0)             (7.7719e-12 5.18088e-12 0)             (6.3411e-12 4.64242e-12 0)             (6.3411e-12 4.64242e-12 0)             (4.93474e-12 4.13937e-12 0)             (3.55286e-12 3.65285e-12 0)             (3.55286e-12 3.65285e-12 0)             (2.19042e-12 3.16457e-12 0)             (8.47006e-13 2.69716e-12 0)             (8.47006e-13 2.69716e-12 0)             (-4.73063e-13 2.28069e-12 0)             (-1.76579e-12 1.9053e-12 0)             (-3.02748e-12 1.5974e-12 0)             (-3.02748e-12 1.5974e-12 0)             (-4.2576e-12 1.34412e-12 0)             (-5.45588e-12 1.13939e-12 0)             (-6.62038e-12 9.77994e-13 0)             (-7.74798e-12 8.43462e-13 0)             (-8.83807e-12 7.3675e-13 0)             (-9.88584e-12 6.24744e-13 0)             (-1.08905e-11 5.12665e-13 0)             (-1.1851e-11 4.17537e-13 0)             (-1.27673e-11 3.28825e-13 0)             (-1.36397e-11 2.49083e-13 0)             (-1.44674e-11 1.7361e-13 0)             (-1.52535e-11 1.11561e-13 0)             (-1.59967e-11 5.63662e-14 0)             (-1.66975e-11 2.70669e-15 0)             (-1.73571e-11 -3.82357e-14 0)             (-1.85597e-11 -1.11768e-13 0)             (-1.91062e-11 -1.51092e-13 0)             (-1.96192e-11 -1.83302e-13 0)             (-2.05602e-11 -2.20678e-13 0)             (-2.09849e-11 -2.51224e-13 0)             (-2.17476e-11 -2.89265e-13 0)             (-2.24042e-11 -3.06586e-13 0)             (-2.26947e-11 -3.16222e-13 0)             (-2.32097e-11 -3.17355e-13 0)             (-2.36424e-11 -3.30306e-13 0)             (-2.40005e-11 -3.25624e-13 0)             (-2.42937e-11 -3.33639e-13 0)             (-2.46292e-11 -2.95432e-13 0)             (-2.47933e-11 -2.68151e-13 0)             (-2.49634e-11 -2.16732e-13 0)             (-2.50564e-11 -1.44236e-13 0)             (-2.50923e-11 -7.10972e-14 0)
          0.6             (3.85448e-12 -3.67894e-12 0)             (3.85448e-12 -3.67894e-12 0)             (4.9989e-12 -1.43767e-12 0)             (4.9989e-12 -1.43767e-12 0)             (4.9989e-12 -1.43767e-12 0)             (6.17724e-12 5.73212e-12 0)             (6.17724e-12 5.73212e-12 0)             (7.87494e-12 8.61587e-12 0)             (7.87494e-12 8.61587e-12 0)             (9.42174e-12 1.13945e-11 0)             (9.42174e-12 1.13945e-11 0)             (1.08748e-11 1.32526e-11 0)             (1.08748e-11 1.32526e-11 0)             (1.08748e-11 1.32526e-11 0)             (1.21167e-11 1.43845e-11 0)             (1.21167e-11 1.43845e-11 0)             (1.31082e-11 1.50626e-11 0)             (1.31082e-11 1.50626e-11 0)             (1.38135e-11 1.54905e-11 0)             (1.38135e-11 1.54905e-11 0)             (1.42257e-11 1.57913e-11 0)             (1.42257e-11 1.57913e-11 0)             (1.43552e-11 1.60505e-11 0)             (1.43552e-11 1.60505e-11 0)             (1.42257e-11 1.63096e-11 0)             (1.38647e-11 1.65908e-11 0)             (1.38647e-11 1.65908e-11 0)             (1.33066e-11 1.689e-11 0)             (1.33066e-11 1.689e-11 0)             (1.25851e-11 1.71994e-11 0)             (1.25851e-11 1.71994e-11 0)             (1.17318e-11 1.75155e-11 0)             (1.07744e-11 1.78196e-11 0)             (1.07744e-11 1.78196e-11 0)             (9.73756e-12 1.80859e-11 0)             (8.64461e-12 1.82873e-11 0)             (8.64461e-12 1.82873e-11 0)             (7.51438e-12 1.84035e-11 0)             (6.36527e-12 1.84067e-11 0)             (6.36527e-12 1.84067e-11 0)             (5.21553e-12 1.82718e-11 0)             (4.0772e-12 1.80364e-11 0)             (2.96021e-12 1.77939e-11 0)             (2.96021e-12 1.77939e-11 0)             (1.87422e-12 1.75767e-11 0)             (8.21809e-13 1.73505e-11 0)             (-1.92335e-13 1.7103e-11 0)             (-1.16529e-12 1.68184e-11 0)             (-2.09631e-12 1.65113e-11 0)             (-2.98136e-12 1.61865e-11 0)             (-3.82341e-12 1.58418e-11 0)             (-4.62184e-12 1.54957e-11 0)             (-5.37465e-12 1.51269e-11 0)             (-6.08458e-12 1.47394e-11 0)             (-6.74951e-12 1.43379e-11 0)             (-7.37649e-12 1.39165e-11 0)             (-7.96368e-12 1.3492e-11 0)             (-8.51294e-12 1.30614e-11 0)             (-9.02709e-12 1.26208e-11 0)             (-9.95622e-12 1.17413e-11 0)             (-1.03748e-11 1.12993e-11 0)             (-1.07704e-11 1.08555e-11 0)             (-1.15071e-11 9.97673e-12 0)             (-1.18377e-11 9.54368e-12 0)             (-1.24251e-11 8.68065e-12 0)             (-1.29226e-11 7.83965e-12 0)             (-1.31397e-11 7.43931e-12 0)             (-1.35173e-11 6.644e-12 0)             (-1.38276e-11 5.85665e-12 0)             (-1.40745e-11 5.13479e-12 0)             (-1.42676e-11 4.43613e-12 0)             (-1.44676e-11 3.4769e-12 0)             (-1.45518e-11 2.84574e-12 0)             (-1.46159e-11 2.02807e-12 0)             (-1.46149e-11 1.27245e-12 0)             (-1.45378e-11 3.80083e-13 0)
          0.7             (5.97169e-12 -3.17896e-12 0)             (5.97169e-12 -3.17896e-12 0)             (6.80169e-12 -6.65732e-13 0)             (6.80169e-12 -6.65732e-13 0)             (6.80169e-12 -6.65732e-13 0)             (8.1291e-12 5.97167e-12 0)             (8.1291e-12 5.97167e-12 0)             (9.68563e-12 8.80558e-12 0)             (9.68563e-12 8.80558e-12 0)             (1.10889e-11 1.16951e-11 0)             (1.10889e-11 1.16951e-11 0)             (1.24045e-11 1.33334e-11 0)             (1.24045e-11 1.33334e-11 0)             (1.24045e-11 1.33334e-11 0)             (1.35203e-11 1.42875e-11 0)             (1.35203e-11 1.42875e-11 0)             (1.44031e-11 1.47376e-11 0)             (1.44031e-11 1.47376e-11 0)             (1.50121e-11 1.48911e-11 0)             (1.50121e-11 1.48911e-11 0)             (1.53337e-11 1.49097e-11 0)             (1.53337e-11 1.49097e-11 0)             (1.53689e-11 1.49061e-11 0)             (1.53689e-11 1.49061e-11 0)             (1.51417e-11 1.48922e-11 0)             (1.4685e-11 1.48977e-11 0)             (1.4685e-11 1.48977e-11 0)             (1.40343e-11 1.49674e-11 0)             (1.40343e-11 1.49674e-11 0)             (1.32235e-11 1.50769e-11 0)             (1.32235e-11 1.50769e-11 0)             (1.22888e-11 1.51763e-11 0)             (1.1266e-11 1.525e-11 0)             (1.1266e-11 1.525e-11 0)             (1.01841e-11 1.52768e-11 0)             (9.0694e-12 1.52486e-11 0)             (9.0694e-12 1.52486e-11 0)             (7.9401e-12 1.51491e-11 0)             (6.80888e-12 1.49917e-11 0)             (6.80888e-12 1.49917e-11 0)             (5.69039e-12 1.48296e-11 0)             (4.59731e-12 1.4671e-11 0)             (3.53838e-12 1.45393e-11 0)             (3.53838e-12 1.45393e-11 0)             (2.52212e-12 1.44025e-11 0)             (1.5497e-12 1.42085e-11 0)             (6.2153e-13 1.39679e-11 0)             (-2.62747e-13 1.36848e-11 0)             (-1.1062e-12 1.33669e-11 0)             (-1.90753e-12 1.30271e-11 0)             (-2.67058e-12 1.26761e-11 0)             (-3.39699e-12 1.23126e-11 0)             (-4.08385e-12 1.19361e-11 0)             (-4.73518e-12 1.15583e-11 0)             (-5.34954e-12 1.1178e-11 0)             (-5.93009e-12 1.0793e-11 0)             (-6.47644e-12 1.04171e-11 0)             (-6.98981e-12 1.00448e-11 0)             (-7.47087e-12 9.6735e-12 0)             (-8.34246e-12 8.94037e-12 0)             (-8.7355e-12 8.58391e-12 0)             (-9.10844e-12 8.23515e-12 0)             (-9.81726e-12 7.53407e-12 0)             (-1.01341e-11 7.18803e-12 0)             (-1.06915e-11 6.53031e-12 0)             (-1.11556e-11 5.89018e-12 0)             (-1.13555e-11 5.58327e-12 0)             (-1.16957e-11 4.99059e-12 0)             (-1.19658e-11 4.4128e-12 0)             (-1.21697e-11 3.86018e-12 0)             (-1.23168e-11 3.35078e-12 0)             (-1.24448e-11 2.62312e-12 0)             (-1.24783e-11 2.20266e-12 0)             (-1.24595e-11 1.56324e-12 0)             (-1.23716e-11 9.98605e-13 0)             (-1.21739e-11 2.88286e-13 0)
          0.8             (-9.14687e-12 -4.79381e-12 0)             (-9.14687e-12 -4.79381e-12 0)             (-9.87563e-12 -5.96343e-12 0)             (-9.87563e-12 -5.96343e-12 0)             (-9.87563e-12 -5.96343e-12 0)             (-9.23717e-12 -3.0217e-12 0)             (-9.23717e-12 -3.0217e-12 0)             (-7.92351e-12 -2.48158e-12 0)             (-7.92351e-12 -2.48158e-12 0)             (-6.36639e-12 -4.86036e-13 0)             (-6.36639e-12 -4.86036e-13 0)             (-4.60897e-12 1.23063e-12 0)             (-4.60897e-12 1.23063e-12 0)             (-4.60897e-12 1.23063e-12 0)             (-2.88979e-12 3.15308e-12 0)             (-2.88979e-12 3.15308e-12 0)             (-1.30229e-12 5.11557e-12 0)             (-1.30229e-12 5.11557e-12 0)             (9.39164e-14 7.09854e-12 0)             (9.39164e-14 7.09854e-12 0)             (1.27163e-12 9.09505e-12 0)             (1.27163e-12 9.09505e-12 0)             (2.23384e-12 1.1019e-11 0)             (2.23384e-12 1.1019e-11 0)             (3.0057e-12 1.28088e-11 0)             (3.60931e-12 1.44731e-11 0)             (3.60931e-12 1.44731e-11 0)             (4.07403e-12 1.59728e-11 0)             (4.07403e-12 1.59728e-11 0)             (4.42318e-12 1.72891e-11 0)             (4.42318e-12 1.72891e-11 0)             (4.68109e-12 1.84253e-11 0)             (4.86783e-12 1.93908e-11 0)             (4.86783e-12 1.93908e-11 0)             (4.99833e-12 2.01911e-11 0)             (5.08938e-12 2.08301e-11 0)             (5.08938e-12 2.08301e-11 0)             (5.15931e-12 2.13544e-11 0)             (5.21715e-12 2.17931e-11 0)             (5.21715e-12 2.17931e-11 0)             (5.26328e-12 2.21136e-11 0)             (5.30118e-12 2.22925e-11 0)             (5.33371e-12 2.23625e-11 0)             (5.33371e-12 2.23625e-11 0)             (5.3636e-12 2.23427e-11 0)             (5.3918e-12 2.22305e-11 0)             (5.41518e-12 2.20404e-11 0)             (5.43357e-12 2.17938e-11 0)             (5.44431e-12 2.15039e-11 0)             (5.45056e-12 2.11677e-11 0)             (5.45126e-12 2.07839e-11 0)             (5.44723e-12 2.03574e-11 0)             (5.44499e-12 1.98922e-11 0)             (5.44071e-12 1.94023e-11 0)             (5.43571e-12 1.88836e-11 0)             (5.42879e-12 1.83457e-11 0)             (5.42091e-12 1.7797e-11 0)             (5.41389e-12 1.72353e-11 0)             (5.40729e-12 1.66694e-11 0)             (5.39337e-12 1.55072e-11 0)             (5.38701e-12 1.49178e-11 0)             (5.37119e-12 1.43397e-11 0)             (5.28388e-12 1.31588e-11 0)             (5.24433e-12 1.25882e-11 0)             (5.18374e-12 1.14516e-11 0)             (5.14656e-12 1.0349e-11 0)             (5.13699e-12 9.79999e-12 0)             (5.13433e-12 8.77716e-12 0)             (5.15226e-12 7.76843e-12 0)             (5.19202e-12 6.80963e-12 0)             (5.25125e-12 5.89184e-12 0)             (5.37228e-12 4.60991e-12 0)             (5.47134e-12 3.81891e-12 0)             (5.64755e-12 2.72131e-12 0)             (5.85513e-12 1.72888e-12 0)             (6.16847e-12 5.27591e-13 0)