# Probe 0 (15.31 -0.61 0)
# Probe 1 (15.31 -0.6 0)
# Probe 2 (15.31 -0.59 0)
# Probe 3 (15.31 -0.58 0)
# Probe 4 (15.31 -0.57 0)
# Probe 5 (15.31 -0.56 0)
# Probe 6 (15.31 -0.55 0)
# Probe 7 (15.31 -0.54 0)
# Probe 8 (15.31 -0.53 0)
# Probe 9 (15.31 -0.52 0)
# Probe 10 (15.31 -0.51 0)
# Probe 11 (15.31 -0.5 0)
# Probe 12 (15.31 -0.49 0)
# Probe 13 (15.31 -0.48 0)
# Probe 14 (15.31 -0.47 0)
# Probe 15 (15.31 -0.46 0)
# Probe 16 (15.31 -0.45 0)
# Probe 17 (15.31 -0.44 0)
# Probe 18 (15.31 -0.43 0)
# Probe 19 (15.31 -0.42 0)
# Probe 20 (15.31 -0.41 0)
# Probe 21 (15.31 -0.4 0)
# Probe 22 (15.31 -0.39 0)
# Probe 23 (15.31 -0.38 0)
# Probe 24 (15.31 -0.37 0)
# Probe 25 (15.31 -0.36 0)
# Probe 26 (15.31 -0.35 0)
# Probe 27 (15.31 -0.34 0)
# Probe 28 (15.31 -0.33 0)
# Probe 29 (15.31 -0.32 0)
# Probe 30 (15.31 -0.31 0)
# Probe 31 (15.31 -0.3 0)
# Probe 32 (15.31 -0.29 0)
# Probe 33 (15.31 -0.28 0)
# Probe 34 (15.31 -0.27 0)
# Probe 35 (15.31 -0.26 0)
# Probe 36 (15.31 -0.25 0)
# Probe 37 (15.31 -0.24 0)
# Probe 38 (15.31 -0.23 0)
# Probe 39 (15.31 -0.22 0)
# Probe 40 (15.31 -0.21 0)
# Probe 41 (15.31 -0.2 0)
# Probe 42 (15.31 -0.19 0)
# Probe 43 (15.31 -0.18 0)
# Probe 44 (15.31 -0.17 0)
# Probe 45 (15.31 -0.16 0)
# Probe 46 (15.31 -0.15 0)
# Probe 47 (15.31 -0.14 0)
# Probe 48 (15.31 -0.13 0)
# Probe 49 (15.31 -0.12 0)
# Probe 50 (15.31 -0.11 0)
# Probe 51 (15.31 -0.1 0)
# Probe 52 (15.31 -0.09 0)
# Probe 53 (15.31 -0.08 0)
# Probe 54 (15.31 -0.07 0)
# Probe 55 (15.31 -0.06 0)
# Probe 56 (15.31 -0.05 0)
# Probe 57 (15.31 -0.04 0)
# Probe 58 (15.31 -0.03 0)
# Probe 59 (15.31 -0.02 0)
# Probe 60 (15.31 -0.01 0)
# Probe 61 (15.31 0 0)
# Probe 62 (15.31 0.01 0)
# Probe 63 (15.31 0.02 0)
# Probe 64 (15.31 0.03 0)
# Probe 65 (15.31 0.04 0)
# Probe 66 (15.31 0.05 0)
# Probe 67 (15.31 0.06 0)
# Probe 68 (15.31 0.07 0)
# Probe 69 (15.31 0.08 0)
# Probe 70 (15.31 0.09 0)
# Probe 71 (15.31 0.1 0)
# Probe 72 (15.31 0.11 0)
# Probe 73 (15.31 0.12 0)
# Probe 74 (15.31 0.13 0)
# Probe 75 (15.31 0.14 0)
#       Probe             0             1             2             3             4             5             6             7             8             9            10            11            12            13            14            15            16            17            18            19            20            21            22            23            24            25            26            27            28            29            30            31            32            33            34            35            36            37            38            39            40            41            42            43            44            45            46            47            48            49            50            51            52            53            54            55            56            57            58            59            60            61            62            63            64            65            66            67            68            69            70            71            72            73            74            75
#        Time
          0.1             (1.98131e-11 6.12319e-13 0)             (1.98131e-11 6.12319e-13 0)             (1.98082e-11 -2.11749e-13 0)             (1.98082e-11 -2.11749e-13 0)             (1.98082e-11 -2.11749e-13 0)             (1.98966e-11 -2.27797e-12 0)             (1.98966e-11 -2.27797e-12 0)             (1.96653e-11 -3.11241e-12 0)             (1.96653e-11 -3.11241e-12 0)             (1.89683e-11 -3.32123e-12 0)             (1.89683e-11 -3.32123e-12 0)             (1.78964e-11 -3.35977e-12 0)             (1.78964e-11 -3.35977e-12 0)             (1.78964e-11 -3.35977e-12 0)             (1.65729e-11 -3.5302e-12 0)             (1.65729e-11 -3.5302e-12 0)             (1.51025e-11 -3.91109e-12 0)             (1.51025e-11 -3.91109e-12 0)             (1.35594e-11 -4.48874e-12 0)             (1.35594e-11 -4.48874e-12 0)             (1.19931e-11 -5.20743e-12 0)             (1.19931e-11 -5.20743e-12 0)             (1.04311e-11 -6.00502e-12 0)             (1.04311e-11 -6.00502e-12 0)             (8.89012e-12 -6.83423e-12 0)             (7.3739e-12 -7.66532e-12 0)             (7.3739e-12 -7.66532e-12 0)             (5.88329e-12 -8.45894e-12 0)             (5.88329e-12 -8.45894e-12 0)             (4.41888e-12 -9.19659e-12 0)             (4.41888e-12 -9.19659e-12 0)             (2.9786e-12 -9.88303e-12 0)             (1.56321e-12 -1.05026e-11 0)             (1.56321e-12 -1.05026e-11 0)             (1.73286e-13 -1.10488e-11 0)             (-1.18973e-12 -1.15203e-11 0)             (-1.18973e-12 -1.15203e-11 0)             (-2.5245e-12 -1.19189e-11 0)             (-3.82842e-12 -1.22497e-11 0)             (-3.82842e-12 -1.22497e-11 0)             (-5.10019e-12 -1.25161e-11 0)             (-6.33853e-12 -1.27252e-11 0)             (-7.54195e-12 -1.28807e-11 0)             (-7.54195e-12 -1.28807e-11 0)             (-8.70943e-12 -1.29883e-11 0)             (-9.83775e-12 -1.30521e-11 0)             (-1.09265e-11 -1.30604e-11 0)             (-1.19733e-11 -1.30251e-11 0)             (-1.29797e-11 -1.2956e-11 0)             (-1.39443e-11 -1.28512e-11 0)             (-1.48674e-11 -1.2708e-11 0)             (-1.5749e-11 -1.25371e-11 0)             (-1.65915e-11 -1.23388e-11 0)             (-1.73946e-11 -1.21204e-11 0)             (-1.8158e-11 -1.18824e-11 0)             (-1.88837e-11 -1.16256e-11 0)             (-1.95708e-11 -1.13634e-11 0)             (-2.02219e-11 -1.1083e-11 0)             (-2.08363e-11 -1.07921e-11 0)             (-2.19624e-11 -1.01964e-11 0)             (-2.24757e-11 -9.88903e-12 0)             (-2.29564e-11 -9.582e-12 0)             (-2.38291e-11 -8.94034e-12 0)             (-2.42226e-11 -8.61831e-12 0)             (-2.49314e-11 -7.98275e-12 0)             (-2.55418e-11 -7.33773e-12 0)             (-2.58148e-11 -7.01436e-12 0)             (-2.62977e-11 -6.3669e-12 0)             (-2.67062e-11 -5.76141e-12 0)             (-2.7049e-11 -5.18665e-12 0)             (-2.73333e-11 -4.60468e-12 0)             (-2.76645e-11 -3.77204e-12 0)             (-2.78298e-11 -3.23223e-12 0)             (-2.80103e-11 -2.45456e-12 0)             (-2.81219e-11 -1.74328e-12 0)             (-2.81878e-11 -8.58822e-13 0)
          0.2             (3.30901e-11 3.96521e-12 0)             (3.30901e-11 3.96521e-12 0)             (3.21388e-11 3.65182e-12 0)             (3.21388e-11 3.65182e-12 0)             (3.21388e-11 3.65182e-12 0)             (3.0671e-11 9.62968e-14 0)             (3.0671e-11 9.62968e-14 0)             (2.87493e-11 1.07565e-12 0)             (2.87493e-11 1.07565e-12 0)             (2.69748e-11 1.58005e-12 0)             (2.69748e-11 1.58005e-12 0)             (2.53842e-11 1.81542e-12 0)             (2.53842e-11 1.81542e-12 0)             (2.53842e-11 1.81542e-12 0)             (2.39376e-11 1.53703e-12 0)             (2.39376e-11 1.53703e-12 0)             (2.25539e-11 8.16057e-13 0)             (2.25539e-11 8.16057e-13 0)             (2.11559e-11 -2.30894e-13 0)             (2.11559e-11 -2.30894e-13 0)             (1.96787e-11 -1.44914e-12 0)             (1.96787e-11 -1.44914e-12 0)             (1.80935e-11 -2.69932e-12 0)             (1.80935e-11 -2.69932e-12 0)             (1.6387e-11 -3.92199e-12 0)             (1.45623e-11 -5.08518e-12 0)             (1.45623e-11 -5.08518e-12 0)             (1.26398e-11 -6.1624e-12 0)             (1.26398e-11 -6.1624e-12 0)             (1.06417e-11 -7.14453e-12 0)             (1.06417e-11 -7.14453e-12 0)             (8.58815e-12 -8.02553e-12 0)             (6.50308e-12 -8.79335e-12 0)             (6.50308e-12 -8.79335e-12 0)             (4.40852e-12 -9.44389e-12 0)             (2.32436e-12 -9.9746e-12 0)             (2.32436e-12 -9.9746e-12 0)             (2.62721e-13 -1.04035e-11 0)             (-1.75663e-12 -1.07539e-11 0)             (-1.75663e-12 -1.07539e-11 0)             (-3.72288e-12 -1.10453e-11 0)             (-5.62673e-12 -1.12871e-11 0)             (-7.46223e-12 -1.14814e-11 0)             (-7.46223e-12 -1.14814e-11 0)             (-9.22533e-12 -1.16206e-11 0)             (-1.0913e-11 -1.17038e-11 0)             (-1.25241e-11 -1.17434e-11 0)             (-1.40571e-11 -1.17318e-11 0)             (-1.55127e-11 -1.16827e-11 0)             (-1.68915e-11 -1.15883e-11 0)             (-1.81948e-11 -1.14641e-11 0)             (-1.9425e-11 -1.13138e-11 0)             (-2.0583e-11 -1.11292e-11 0)             (-2.16704e-11 -1.09307e-11 0)             (-2.26913e-11 -1.07068e-11 0)             (-2.36465e-11 -1.04621e-11 0)             (-2.45411e-11 -1.02076e-11 0)             (-2.53774e-11 -9.93858e-12 0)             (-2.61584e-11 -9.65785e-12 0)             (-2.75638e-11 -9.0711e-12 0)             (-2.8194e-11 -8.76825e-12 0)             (-2.87808e-11 -8.46214e-12 0)             (-2.98314e-11 -7.85025e-12 0)             (-3.02993e-11 -7.54721e-12 0)             (-3.11291e-11 -6.91268e-12 0)             (-3.18329e-11 -6.29961e-12 0)             (-3.21408e-11 -5.99216e-12 0)             (-3.26804e-11 -5.37935e-12 0)             (-3.31274e-11 -4.79501e-12 0)             (-3.34946e-11 -4.26054e-12 0)             (-3.3791e-11 -3.71776e-12 0)             (-3.4123e-11 -2.93824e-12 0)             (-3.42818e-11 -2.43948e-12 0)             (-3.44431e-11 -1.75471e-12 0)             (-3.45292e-11 -1.09238e-12 0)             (-3.45561e-11 -3.11342e-13 0)
          0.3             (1.89042e-11 4.27311e-12 0)             (1.89042e-11 4.27311e-12 0)             (1.92378e-11 6.36815e-12 0)             (1.92378e-11 6.36815e-12 0)             (1.92378e-11 6.36815e-12 0)             (1.8355e-11 5.5567e-12 0)             (1.8355e-11 5.5567e-12 0)             (1.75213e-11 5.96946e-12 0)             (1.75213e-11 5.96946e-12 0)             (1.69145e-11 4.45726e-12 0)             (1.69145e-11 4.45726e-12 0)             (1.64324e-11 3.51848e-12 0)             (1.64324e-11 3.51848e-12 0)             (1.64324e-11 3.51848e-12 0)             (1.59779e-11 3.01909e-12 0)             (1.59779e-11 3.01909e-12 0)             (1.54627e-11 3.01248e-12 0)             (1.54627e-11 3.01248e-12 0)             (1.48378e-11 3.36115e-12 0)             (1.48378e-11 3.36115e-12 0)             (1.40815e-11 3.95763e-12 0)             (1.40815e-11 3.95763e-12 0)             (1.31988e-11 4.74332e-12 0)             (1.31988e-11 4.74332e-12 0)             (1.22063e-11 5.62598e-12 0)             (1.11226e-11 6.54211e-12 0)             (1.11226e-11 6.54211e-12 0)             (9.97592e-12 7.44357e-12 0)             (9.97592e-12 7.44357e-12 0)             (8.78934e-12 8.29249e-12 0)             (8.78934e-12 8.29249e-12 0)             (7.58677e-12 9.04889e-12 0)             (6.38926e-12 9.67539e-12 0)             (6.38926e-12 9.67539e-12 0)             (5.21396e-12 1.01627e-11 0)             (4.07357e-12 1.05032e-11 0)             (4.07357e-12 1.05032e-11 0)             (2.97752e-12 1.06878e-11 0)             (1.9323e-12 1.07263e-11 0)             (1.9323e-12 1.07263e-11 0)             (9.42921e-13 1.06203e-11 0)             (1.24785e-14 1.03752e-11 0)             (-8.60565e-13 1.00723e-11 0)             (-8.60565e-13 1.00723e-11 0)             (-1.68142e-12 9.78495e-12 0)             (-2.4526e-12 9.49147e-12 0)             (-3.1772e-12 9.18544e-12 0)             (-3.8554e-12 8.89574e-12 0)             (-4.48931e-12 8.61619e-12 0)             (-5.07886e-12 8.33273e-12 0)             (-5.62705e-12 8.05374e-12 0)             (-6.13534e-12 7.77245e-12 0)             (-6.60715e-12 7.49225e-12 0)             (-7.04272e-12 7.21488e-12 0)             (-7.44577e-12 6.93278e-12 0)             (-7.81788e-12 6.65833e-12 0)             (-8.16075e-12 6.39611e-12 0)             (-8.47566e-12 6.12241e-12 0)             (-8.76703e-12 5.86281e-12 0)             (-9.27892e-12 5.35035e-12 0)             (-9.50357e-12 5.10187e-12 0)             (-9.71356e-12 4.86162e-12 0)             (-1.00915e-11 4.39462e-12 0)             (-1.02552e-11 4.16929e-12 0)             (-1.05375e-11 3.73551e-12 0)             (-1.07675e-11 3.32203e-12 0)             (-1.08646e-11 3.127e-12 0)             (-1.10296e-11 2.78249e-12 0)             (-1.11577e-11 2.41351e-12 0)             (-1.12563e-11 2.08262e-12 0)             (-1.13289e-11 1.74896e-12 0)             (-1.13964e-11 1.3367e-12 0)             (-1.14174e-11 1.1079e-12 0)             (-1.1424e-11 7.5805e-13 0)             (-1.14042e-11 4.56699e-13 0)             (-1.1347e-11 1.15682e-13 0)
          0.4             (2.45455e-11 5.03333e-12 0)             (2.45455e-11 5.03333e-12 0)             (2.52636e-11 8.56849e-12 0)             (2.52636e-11 8.56849e-12 0)             (2.52636e-11 8.56849e-12 0)             (2.4058e-11 8.06664e-12 0)             (2.4058e-11 8.06664e-12 0)             (2.32564e-11 7.68239e-12 0)             (2.32564e-11 7.68239e-12 0)             (2.26413e-11 5.56547e-12 0)             (2.26413e-11 5.56547e-12 0)             (2.21369e-11 4.38286e-12 0)             (2.21369e-11 4.38286e-12 0)             (2.21369e-11 4.38286e-12 0)             (2.16192e-11 3.88765e-12 0)             (2.16192e-11 3.88765e-12 0)             (2.09978e-11 4.1294e-12 0)             (2.09978e-11 4.1294e-12 0)             (2.02288e-11 4.8852e-12 0)             (2.02288e-11 4.8852e-12 0)             (1.93013e-11 5.96849e-12 0)             (1.93013e-11 5.96849e-12 0)             (1.82289e-11 7.26124e-12 0)             (1.82289e-11 7.26124e-12 0)             (1.70329e-11 8.6195e-12 0)             (1.57451e-11 9.94037e-12 0)             (1.57451e-11 9.94037e-12 0)             (1.44017e-11 1.11478e-11 0)             (1.44017e-11 1.11478e-11 0)             (1.30331e-11 1.22019e-11 0)             (1.30331e-11 1.22019e-11 0)             (1.16633e-11 1.30796e-11 0)             (1.0314e-11 1.37775e-11 0)             (1.0314e-11 1.37775e-11 0)             (9.00193e-12 1.42967e-11 0)             (7.74063e-12 1.46526e-11 0)             (7.74063e-12 1.46526e-11 0)             (6.5405e-12 1.48614e-11 0)             (5.40717e-12 1.49168e-11 0)             (5.40717e-12 1.49168e-11 0)             (4.34724e-12 1.48305e-11 0)             (3.35822e-12 1.46111e-11 0)             (2.44082e-12 1.43053e-11 0)             (2.44082e-12 1.43053e-11 0)             (1.58607e-12 1.39444e-11 0)             (7.85567e-13 1.35408e-11 0)             (3.67755e-14 1.31172e-11 0)             (-6.62144e-13 1.2694e-11 0)             (-1.31208e-12 1.22881e-11 0)             (-1.91406e-12 1.18737e-11 0)             (-2.47079e-12 1.14539e-11 0)             (-2.98527e-12 1.10441e-11 0)             (-3.45865e-12 1.06392e-11 0)             (-3.893e-12 1.02388e-11 0)             (-4.29271e-12 9.84495e-12 0)             (-4.6584e-12 9.4542e-12 0)             (-4.99294e-12 9.07437e-12 0)             (-5.29795e-12 8.70374e-12 0)             (-5.57641e-12 8.33535e-12 0)             (-6.06056e-12 7.61917e-12 0)             (-6.2706e-12 7.27004e-12 0)             (-6.46914e-12 6.93194e-12 0)             (-6.82984e-12 6.28458e-12 0)             (-6.98444e-12 5.97761e-12 0)             (-7.24491e-12 5.36178e-12 0)             (-7.45058e-12 4.78674e-12 0)             (-7.53484e-12 4.52512e-12 0)             (-7.672e-12 4.00899e-12 0)             (-7.77313e-12 3.50013e-12 0)             (-7.8431e-12 3.02098e-12 0)             (-7.8862e-12 2.58214e-12 0)             (-7.91114e-12 1.98764e-12 0)             (-7.90559e-12 1.61349e-12 0)             (-7.8716e-12 1.12332e-12 0)             (-7.81195e-12 6.78546e-13 0)             (-7.7012e-12 1.83281e-13 0)
          0.5             (2.02738e-12 -1.82319e-12 0)             (2.02738e-12 -1.82319e-12 0)             (3.59503e-12 -2.26754e-13 0)             (3.59503e-12 -2.26754e-13 0)             (3.59503e-12 -2.26754e-13 0)             (4.31948e-12 4.05264e-12 0)             (4.31948e-12 4.05264e-12 0)             (4.99139e-12 4.8811e-12 0)             (4.99139e-12 4.8811e-12 0)             (5.05182e-12 5.49059e-12 0)             (5.05182e-12 5.49059e-12 0)             (4.79102e-12 6.80049e-12 0)             (4.79102e-12 6.80049e-12 0)             (4.79102e-12 6.80049e-12 0)             (4.36363e-12 8.24653e-12 0)             (4.36363e-12 8.24653e-12 0)             (3.9025e-12 9.84296e-12 0)             (3.9025e-12 9.84296e-12 0)             (3.4908e-12 1.14109e-11 0)             (3.4908e-12 1.14109e-11 0)             (3.16559e-12 1.28585e-11 0)             (3.16559e-12 1.28585e-11 0)             (2.93544e-12 1.41606e-11 0)             (2.93544e-12 1.41606e-11 0)             (2.7933e-12 1.5265e-11 0)             (2.73087e-12 1.61541e-11 0)             (2.73087e-12 1.61541e-11 0)             (2.73689e-12 1.68357e-11 0)             (2.73689e-12 1.68357e-11 0)             (2.79361e-12 1.73277e-11 0)             (2.79361e-12 1.73277e-11 0)             (2.89212e-12 1.76534e-11 0)             (3.02099e-12 1.78434e-11 0)             (3.02099e-12 1.78434e-11 0)             (3.16882e-12 1.79243e-11 0)             (3.32506e-12 1.79156e-11 0)             (3.32506e-12 1.79156e-11 0)             (3.47797e-12 1.78361e-11 0)             (3.61953e-12 1.77026e-11 0)             (3.61953e-12 1.77026e-11 0)             (3.74449e-12 1.75167e-11 0)             (3.84865e-12 1.72885e-11 0)             (3.92846e-12 1.70282e-11 0)             (3.92846e-12 1.70282e-11 0)             (3.98244e-12 1.67437e-11 0)             (4.01111e-12 1.64289e-11 0)             (4.01152e-12 1.60984e-11 0)             (3.98719e-12 1.57502e-11 0)             (3.93901e-12 1.53844e-11 0)             (3.87421e-12 1.5014e-11 0)             (3.79468e-12 1.46265e-11 0)             (3.70311e-12 1.42283e-11 0)             (3.60217e-12 1.38215e-11 0)             (3.49624e-12 1.34138e-11 0)             (3.38326e-12 1.30063e-11 0)             (3.26777e-12 1.25967e-11 0)             (3.14971e-12 1.21918e-11 0)             (3.03165e-12 1.17841e-11 0)             (2.91346e-12 1.1378e-11 0)             (2.68333e-12 1.05994e-11 0)             (2.57129e-12 1.02214e-11 0)             (2.45078e-12 9.8439e-12 0)             (2.19254e-12 9.10098e-12 0)             (2.07442e-12 8.7569e-12 0)             (1.86068e-12 8.03471e-12 0)             (1.67843e-12 7.34195e-12 0)             (1.6004e-12 7.00038e-12 0)             (1.46617e-12 6.36678e-12 0)             (1.36316e-12 5.70242e-12 0)             (1.28892e-12 5.07827e-12 0)             (1.2381e-12 4.47228e-12 0)             (1.20201e-12 3.64973e-12 0)             (1.20303e-12 3.1312e-12 0)             (1.23099e-12 2.37871e-12 0)             (1.28988e-12 1.67446e-12 0)             (1.40449e-12 8.15002e-13 0)
          0.6             (3.59744e-12 -2.25641e-12 0)             (3.59744e-12 -2.25641e-12 0)             (5.40436e-12 1.53208e-13 0)             (5.40436e-12 1.53208e-13 0)             (5.40436e-12 1.53208e-13 0)             (6.31799e-12 4.80662e-12 0)             (6.31799e-12 4.80662e-12 0)             (6.91528e-12 5.11392e-12 0)             (6.91528e-12 5.11392e-12 0)             (6.79024e-12 6.2509e-12 0)             (6.79024e-12 6.2509e-12 0)             (6.35475e-12 7.8702e-12 0)             (6.35475e-12 7.8702e-12 0)             (6.35475e-12 7.8702e-12 0)             (5.79061e-12 9.51648e-12 0)             (5.79061e-12 9.51648e-12 0)             (5.24552e-12 1.1191e-11 0)             (5.24552e-12 1.1191e-11 0)             (4.79836e-12 1.27218e-11 0)             (4.79836e-12 1.27218e-11 0)             (4.47338e-12 1.40393e-11 0)             (4.47338e-12 1.40393e-11 0)             (4.27012e-12 1.51637e-11 0)             (4.27012e-12 1.51637e-11 0)             (4.17476e-12 1.60723e-11 0)             (4.16813e-12 1.67848e-11 0)             (4.16813e-12 1.67848e-11 0)             (4.23198e-12 1.73331e-11 0)             (4.23198e-12 1.73331e-11 0)             (4.34581e-12 1.7741e-11 0)             (4.34581e-12 1.7741e-11 0)             (4.48912e-12 1.80267e-11 0)             (4.6454e-12 1.8208e-11 0)             (4.6454e-12 1.8208e-11 0)             (4.7987e-12 1.83148e-11 0)             (4.93853e-12 1.83541e-11 0)             (4.93853e-12 1.83541e-11 0)             (5.05706e-12 1.8324e-11 0)             (5.14759e-12 1.8246e-11 0)             (5.14759e-12 1.8246e-11 0)             (5.20837e-12 1.81246e-11 0)             (5.23735e-12 1.79535e-11 0)             (5.23465e-12 1.77478e-11 0)             (5.23465e-12 1.77478e-11 0)             (5.20143e-12 1.75099e-11 0)             (5.13919e-12 1.72375e-11 0)             (5.04798e-12 1.69412e-11 0)             (4.93142e-12 1.66199e-11 0)             (4.79245e-12 1.62775e-11 0)             (4.63685e-12 1.59128e-11 0)             (4.46632e-12 1.55354e-11 0)             (4.28586e-12 1.51456e-11 0)             (4.0971e-12 1.47361e-11 0)             (3.90435e-12 1.43227e-11 0)             (3.707e-12 1.39027e-11 0)             (3.51032e-12 1.34806e-11 0)             (3.31259e-12 1.30514e-11 0)             (3.11863e-12 1.26141e-11 0)             (2.92691e-12 1.21932e-11 0)             (2.55659e-12 1.13461e-11 0)             (2.37947e-12 1.0925e-11 0)             (2.19299e-12 1.05209e-11 0)             (1.8e-12 9.70338e-12 0)             (1.61903e-12 9.3039e-12 0)             (1.29058e-12 8.52965e-12 0)             (1.0084e-12 7.7677e-12 0)             (8.84682e-13 7.39424e-12 0)             (6.68781e-13 6.70346e-12 0)             (4.94033e-13 6.01298e-12 0)             (3.57793e-13 5.34006e-12 0)             (2.56309e-13 4.67264e-12 0)             (1.64201e-13 3.79334e-12 0)             (1.38396e-13 3.23062e-12 0)             (1.42148e-13 2.44502e-12 0)             (1.91167e-13 1.70117e-12 0)             (3.11713e-13 8.27659e-13 0)
          0.7             (5.3173e-12 -2.33468e-12 0)             (5.3173e-12 -2.33468e-12 0)             (7.33989e-12 5.89279e-13 0)             (7.33989e-12 5.89279e-13 0)             (7.33989e-12 5.89279e-13 0)             (8.31585e-12 5.23648e-12 0)             (8.31585e-12 5.23648e-12 0)             (8.716e-12 5.36693e-12 0)             (8.716e-12 5.36693e-12 0)             (8.344e-12 7.08905e-12 0)             (8.344e-12 7.08905e-12 0)             (7.74469e-12 8.9741e-12 0)             (7.74469e-12 8.9741e-12 0)             (7.74469e-12 8.9741e-12 0)             (7.11347e-12 1.07507e-11 0)             (7.11347e-12 1.07507e-11 0)             (6.5884e-12 1.24206e-11 0)             (6.5884e-12 1.24206e-11 0)             (6.21836e-12 1.3858e-11 0)             (6.21836e-12 1.3858e-11 0)             (6.00471e-12 1.5038e-11 0)             (6.00471e-12 1.5038e-11 0)             (5.92534e-12 1.60172e-11 0)             (5.92534e-12 1.60172e-11 0)             (5.94852e-12 1.68064e-11 0)             (6.04444e-12 1.74293e-11 0)             (6.04444e-12 1.74293e-11 0)             (6.19026e-12 1.79211e-11 0)             (6.19026e-12 1.79211e-11 0)             (6.35701e-12 1.83116e-11 0)             (6.35701e-12 1.83116e-11 0)             (6.52305e-12 1.86051e-11 0)             (6.67326e-12 1.88169e-11 0)             (6.67326e-12 1.88169e-11 0)             (6.79607e-12 1.89622e-11 0)             (6.88464e-12 1.90464e-11 0)             (6.88464e-12 1.90464e-11 0)             (6.9336e-12 1.90854e-11 0)             (6.94326e-12 1.90708e-11 0)             (6.94326e-12 1.90708e-11 0)             (6.91301e-12 1.90025e-11 0)             (6.84403e-12 1.88946e-11 0)             (6.74052e-12 1.87494e-11 0)             (6.74052e-12 1.87494e-11 0)             (6.60578e-12 1.85657e-11 0)             (6.4416e-12 1.83383e-11 0)             (6.25162e-12 1.80808e-11 0)             (6.03994e-12 1.78005e-11 0)             (5.80821e-12 1.74862e-11 0)             (5.56326e-12 1.71439e-11 0)             (5.30744e-12 1.67825e-11 0)             (5.04414e-12 1.64034e-11 0)             (4.77703e-12 1.60067e-11 0)             (4.50884e-12 1.55916e-11 0)             (4.23997e-12 1.51647e-11 0)             (3.97557e-12 1.47311e-11 0)             (3.71436e-12 1.42977e-11 0)             (3.45928e-12 1.38539e-11 0)             (3.21113e-12 1.34014e-11 0)             (2.73823e-12 1.25062e-11 0)             (2.51516e-12 1.20567e-11 0)             (2.28216e-12 1.16145e-11 0)             (1.78916e-12 1.07349e-11 0)             (1.56068e-12 1.02978e-11 0)             (1.14981e-12 9.43844e-12 0)             (7.97504e-13 8.58811e-12 0)             (6.43108e-13 8.18471e-12 0)             (3.73704e-13 7.39959e-12 0)             (1.55809e-13 6.60054e-12 0)             (-1.501e-14 5.84829e-12 0)             (-1.43292e-13 5.12411e-12 0)             (-2.62727e-13 4.1138e-12 0)             (-2.99413e-13 3.50568e-12 0)             (-3.03516e-13 2.6286e-12 0)             (-2.53069e-13 1.82344e-12 0)             (-1.18848e-13 8.4481e-13 0)
          0.8             (6.42455e-12 -2.23555e-12 0)             (6.42455e-12 -2.23555e-12 0)             (8.6102e-12 1.04033e-12 0)             (8.6102e-12 1.04033e-12 0)             (8.6102e-12 1.04033e-12 0)             (9.54745e-12 5.70804e-12 0)             (9.54745e-12 5.70804e-12 0)             (9.64426e-12 6.0517e-12 0)             (9.64426e-12 6.0517e-12 0)             (9.0138e-12 8.37012e-12 0)             (9.0138e-12 8.37012e-12 0)             (8.31623e-12 1.04567e-11 0)             (8.31623e-12 1.04567e-11 0)             (8.31623e-12 1.04567e-11 0)             (7.73235e-12 1.22703e-11 0)             (7.73235e-12 1.22703e-11 0)             (7.36026e-12 1.38725e-11 0)             (7.36026e-12 1.38725e-11 0)             (7.20492e-12 1.5204e-11 0)             (7.20492e-12 1.5204e-11 0)             (7.22631e-12 1.62876e-11 0)             (7.22631e-12 1.62876e-11 0)             (7.37291e-12 1.71943e-11 0)             (7.37291e-12 1.71943e-11 0)             (7.59298e-12 1.79489e-11 0)             (7.84588e-12 1.85872e-11 0)             (7.84588e-12 1.85872e-11 0)             (8.10451e-12 1.91464e-11 0)             (8.10451e-12 1.91464e-11 0)             (8.34232e-12 1.96427e-11 0)             (8.34232e-12 1.96427e-11 0)             (8.54315e-12 2.00857e-11 0)             (8.69694e-12 2.04835e-11 0)             (8.69694e-12 2.04835e-11 0)             (8.79906e-12 2.08295e-11 0)             (8.84897e-12 2.11383e-11 0)             (8.84897e-12 2.11383e-11 0)             (8.8459e-12 2.13993e-11 0)             (8.7934e-12 2.16201e-11 0)             (8.7934e-12 2.16201e-11 0)             (8.69387e-12 2.18019e-11 0)             (8.55373e-12 2.19348e-11 0)             (8.37563e-12 2.20327e-11 0)             (8.37563e-12 2.20327e-11 0)             (8.16492e-12 2.20867e-11 0)             (7.92722e-12 2.20964e-11 0)             (7.66567e-12 2.20506e-11 0)             (7.38876e-12 2.19507e-11 0)             (7.09992e-12 2.17922e-11 0)             (6.80745e-12 2.15794e-11 0)             (6.51635e-12 2.13079e-11 0)             (6.2309e-12 2.09693e-11 0)             (5.95342e-12 2.05815e-11 0)             (5.68621e-12 2.01432e-11 0)             (5.42557e-12 1.96517e-11 0)             (5.17887e-12 1.91189e-11 0)             (4.94296e-12 1.85459e-11 0)             (4.72055e-12 1.79448e-11 0)             (4.51109e-12 1.73336e-11 0)             (4.12968e-12 1.60724e-11 0)             (3.95652e-12 1.54515e-11 0)             (3.77207e-12 1.48428e-11 0)             (3.35949e-12 1.36477e-11 0)             (3.1701e-12 1.30612e-11 0)             (2.83609e-12 1.1901e-11 0)             (2.55773e-12 1.07794e-11 0)             (2.43873e-12 1.02367e-11 0)             (2.23528e-12 9.18468e-12 0)             (2.07762e-12 8.13762e-12 0)             (1.96021e-12 7.13431e-12 0)             (1.87881e-12 6.18554e-12 0)             (1.81589e-12 4.83479e-12 0)             (1.80936e-12 4.02122e-12 0)             (1.84316e-12 2.91209e-12 0)             (1.92292e-12 1.90917e-12 0)             (2.08828e-12 7.76412e-13 0)