# Probe 0 (15.31 -0.61 0)
# Probe 1 (15.31 -0.6 0)
# Probe 2 (15.31 -0.59 0)
# Probe 3 (15.31 -0.58 0)
# Probe 4 (15.31 -0.57 0)
# Probe 5 (15.31 -0.56 0)
# Probe 6 (15.31 -0.55 0)
# Probe 7 (15.31 -0.54 0)
# Probe 8 (15.31 -0.53 0)
# Probe 9 (15.31 -0.52 0)
# Probe 10 (15.31 -0.51 0)
# Probe 11 (15.31 -0.5 0)
# Probe 12 (15.31 -0.49 0)
# Probe 13 (15.31 -0.48 0)
# Probe 14 (15.31 -0.47 0)
# Probe 15 (15.31 -0.46 0)
# Probe 16 (15.31 -0.45 0)
# Probe 17 (15.31 -0.44 0)
# Probe 18 (15.31 -0.43 0)
# Probe 19 (15.31 -0.42 0)
# Probe 20 (15.31 -0.41 0)
# Probe 21 (15.31 -0.4 0)
# Probe 22 (15.31 -0.39 0)
# Probe 23 (15.31 -0.38 0)
# Probe 24 (15.31 -0.37 0)
# Probe 25 (15.31 -0.36 0)
# Probe 26 (15.31 -0.35 0)
# Probe 27 (15.31 -0.34 0)
# Probe 28 (15.31 -0.33 0)
# Probe 29 (15.31 -0.32 0)
# Probe 30 (15.31 -0.31 0)
# Probe 31 (15.31 -0.3 0)
# Probe 32 (15.31 -0.29 0)
# Probe 33 (15.31 -0.28 0)
# Probe 34 (15.31 -0.27 0)
# Probe 35 (15.31 -0.26 0)
# Probe 36 (15.31 -0.25 0)
# Probe 37 (15.31 -0.24 0)
# Probe 38 (15.31 -0.23 0)
# Probe 39 (15.31 -0.22 0)
# Probe 40 (15.31 -0.21 0)
# Probe 41 (15.31 -0.2 0)
# Probe 42 (15.31 -0.19 0)
# Probe 43 (15.31 -0.18 0)
# Probe 44 (15.31 -0.17 0)
# Probe 45 (15.31 -0.16 0)
# Probe 46 (15.31 -0.15 0)
# Probe 47 (15.31 -0.14 0)
# Probe 48 (15.31 -0.13 0)
# Probe 49 (15.31 -0.12 0)
# Probe 50 (15.31 -0.11 0)
# Probe 51 (15.31 -0.1 0)
# Probe 52 (15.31 -0.09 0)
# Probe 53 (15.31 -0.08 0)
# Probe 54 (15.31 -0.07 0)
# Probe 55 (15.31 -0.06 0)
# Probe 56 (15.31 -0.05 0)
# Probe 57 (15.31 -0.04 0)
# Probe 58 (15.31 -0.03 0)
# Probe 59 (15.31 -0.02 0)
# Probe 60 (15.31 -0.01 0)
# Probe 61 (15.31 0 0)
# Probe 62 (15.31 0.01 0)
# Probe 63 (15.31 0.02 0)
# Probe 64 (15.31 0.03 0)
# Probe 65 (15.31 0.04 0)
# Probe 66 (15.31 0.05 0)
# Probe 67 (15.31 0.06 0)
# Probe 68 (15.31 0.07 0)
# Probe 69 (15.31 0.08 0)
# Probe 70 (15.31 0.09 0)
# Probe 71 (15.31 0.1 0)
# Probe 72 (15.31 0.11 0)
# Probe 73 (15.31 0.12 0)
# Probe 74 (15.31 0.13 0)
# Probe 75 (15.31 0.14 0)
#       Probe             0             1             2             3             4             5             6             7             8             9            10            11            12            13            14            15            16            17            18            19            20            21            22            23            24            25            26            27            28            29            30            31            32            33            34            35            36            37            38            39            40            41            42            43            44            45            46            47            48            49            50            51            52            53            54            55            56            57            58            59            60            61            62            63            64            65            66            67            68            69            70            71            72            73            74            75
#        Time
          0.1             (-5.31473e-10 -4.85916e-13 0)             (-5.31473e-10 -4.85916e-13 0)             (-5.2954e-10 4.14358e-13 0)             (-5.2954e-10 4.14358e-13 0)             (-5.2954e-10 4.14358e-13 0)             (-5.27552e-10 1.64849e-12 0)             (-5.27552e-10 1.64849e-12 0)             (-5.25967e-10 1.61157e-12 0)             (-5.25967e-10 1.61157e-12 0)             (-5.24607e-10 1.80271e-12 0)             (-5.24607e-10 1.80271e-12 0)             (-5.23377e-10 1.99036e-12 0)             (-5.23377e-10 1.99036e-12 0)             (-5.23377e-10 1.99036e-12 0)             (-5.22252e-10 2.20535e-12 0)             (-5.22252e-10 2.20535e-12 0)             (-5.21169e-10 2.39807e-12 0)             (-5.21169e-10 2.39807e-12 0)             (-5.20094e-10 2.55551e-12 0)             (-5.20094e-10 2.55551e-12 0)             (-5.1901e-10 2.6752e-12 0)             (-5.1901e-10 2.6752e-12 0)             (-5.17909e-10 2.74951e-12 0)             (-5.17909e-10 2.74951e-12 0)             (-5.16799e-10 2.77418e-12 0)             (-5.15686e-10 2.76188e-12 0)             (-5.15686e-10 2.76188e-12 0)             (-5.14567e-10 2.72622e-12 0)             (-5.14567e-10 2.72622e-12 0)             (-5.13448e-10 2.6641e-12 0)             (-5.13448e-10 2.6641e-12 0)             (-5.12333e-10 2.5738e-12 0)             (-5.11225e-10 2.4648e-12 0)             (-5.11225e-10 2.4648e-12 0)             (-5.10131e-10 2.33648e-12 0)             (-5.09063e-10 2.1841e-12 0)             (-5.09063e-10 2.1841e-12 0)             (-5.08023e-10 1.9818e-12 0)             (-5.07023e-10 1.73104e-12 0)             (-5.07023e-10 1.73104e-12 0)             (-5.06066e-10 1.46144e-12 0)             (-5.05152e-10 1.16798e-12 0)             (-5.04284e-10 8.5012e-13 0)             (-5.04284e-10 8.5012e-13 0)             (-5.0346e-10 5.19891e-13 0)             (-5.02684e-10 1.86083e-13 0)             (-5.01953e-10 -1.50872e-13 0)             (-5.01267e-10 -4.93615e-13 0)             (-5.00626e-10 -8.23352e-13 0)             (-5.00027e-10 -1.13455e-12 0)             (-4.99469e-10 -1.44371e-12 0)             (-4.98949e-10 -1.7329e-12 0)             (-4.98466e-10 -2.00116e-12 0)             (-4.98019e-10 -2.26457e-12 0)             (-4.97606e-10 -2.49769e-12 0)             (-4.97225e-10 -2.70817e-12 0)             (-4.96875e-10 -2.90778e-12 0)             (-4.96555e-10 -3.07957e-12 0)             (-4.96261e-10 -3.22751e-12 0)             (-4.95753e-10 -3.45771e-12 0)             (-4.95534e-10 -3.54503e-12 0)             (-4.95337e-10 -3.60702e-12 0)             (-4.95003e-10 -3.68415e-12 0)             (-4.94863e-10 -3.68449e-12 0)             (-4.9463e-10 -3.658e-12 0)             (-4.94454e-10 -3.55008e-12 0)             (-4.94384e-10 -3.48287e-12 0)             (-4.94277e-10 -3.26184e-12 0)             (-4.94208e-10 -3.06501e-12 0)             (-4.94171e-10 -2.81553e-12 0)             (-4.94158e-10 -2.54959e-12 0)             (-4.9418e-10 -2.09295e-12 0)             (-4.94213e-10 -1.76046e-12 0)             (-4.94286e-10 -1.26159e-12 0)             (-4.94379e-10 -7.42752e-13 0)             (-4.94522e-10 -1.05075e-13 0)
          0.2             (-2.12086e-10 -7.45663e-13 0)             (-2.12086e-10 -7.45663e-13 0)             (-2.12774e-10 -1.15454e-12 0)             (-2.12774e-10 -1.15454e-12 0)             (-2.12774e-10 -1.15454e-12 0)             (-2.13189e-10 -1.17719e-12 0)             (-2.13189e-10 -1.17719e-12 0)             (-2.13637e-10 -1.4571e-12 0)             (-2.13637e-10 -1.4571e-12 0)             (-2.13879e-10 -1.40441e-12 0)             (-2.13879e-10 -1.40441e-12 0)             (-2.13909e-10 -1.45412e-12 0)             (-2.13909e-10 -1.45412e-12 0)             (-2.13909e-10 -1.45412e-12 0)             (-2.13779e-10 -1.52108e-12 0)             (-2.13779e-10 -1.52108e-12 0)             (-2.13504e-10 -1.62602e-12 0)             (-2.13504e-10 -1.62602e-12 0)             (-2.13112e-10 -1.76971e-12 0)             (-2.13112e-10 -1.76971e-12 0)             (-2.12626e-10 -1.95212e-12 0)             (-2.12626e-10 -1.95212e-12 0)             (-2.12063e-10 -2.16127e-12 0)             (-2.12063e-10 -2.16127e-12 0)             (-2.11442e-10 -2.39647e-12 0)             (-2.10777e-10 -2.64778e-12 0)             (-2.10777e-10 -2.64778e-12 0)             (-2.10082e-10 -2.90855e-12 0)             (-2.10082e-10 -2.90855e-12 0)             (-2.09367e-10 -3.18471e-12 0)             (-2.09367e-10 -3.18471e-12 0)             (-2.08642e-10 -3.46481e-12 0)             (-2.07915e-10 -3.74931e-12 0)             (-2.07915e-10 -3.74931e-12 0)             (-2.07194e-10 -4.02858e-12 0)             (-2.06488e-10 -4.30325e-12 0)             (-2.06488e-10 -4.30325e-12 0)             (-2.05802e-10 -4.57902e-12 0)             (-2.05145e-10 -4.8411e-12 0)             (-2.05145e-10 -4.8411e-12 0)             (-2.0452e-10 -5.096e-12 0)             (-2.03922e-10 -5.34159e-12 0)             (-2.03352e-10 -5.57304e-12 0)             (-2.03352e-10 -5.57304e-12 0)             (-2.02809e-10 -5.78753e-12 0)             (-2.02292e-10 -5.97814e-12 0)             (-2.01802e-10 -6.15401e-12 0)             (-2.01337e-10 -6.31411e-12 0)             (-2.00899e-10 -6.45446e-12 0)             (-2.00486e-10 -6.56706e-12 0)             (-2.00096e-10 -6.65547e-12 0)             (-1.9973e-10 -6.72962e-12 0)             (-1.99387e-10 -6.77946e-12 0)             (-1.99067e-10 -6.7943e-12 0)             (-1.98768e-10 -6.76792e-12 0)             (-1.98493e-10 -6.69694e-12 0)             (-1.9824e-10 -6.59727e-12 0)             (-1.98008e-10 -6.48451e-12 0)             (-1.97797e-10 -6.36228e-12 0)             (-1.97431e-10 -6.1012e-12 0)             (-1.97273e-10 -5.96346e-12 0)             (-1.9713e-10 -5.81171e-12 0)             (-1.96887e-10 -5.51068e-12 0)             (-1.96786e-10 -5.34542e-12 0)             (-1.9662e-10 -5.00059e-12 0)             (-1.96499e-10 -4.64217e-12 0)             (-1.96453e-10 -4.45176e-12 0)             (-1.96388e-10 -4.05464e-12 0)             (-1.96354e-10 -3.66733e-12 0)             (-1.96347e-10 -3.28606e-12 0)             (-1.96363e-10 -2.89062e-12 0)             (-1.96426e-10 -2.30906e-12 0)             (-1.96487e-10 -1.92964e-12 0)             (-1.96605e-10 -1.37746e-12 0)             (-1.96745e-10 -8.70341e-13 0)             (-1.96956e-10 -2.247e-13 0)
          0.3             (2.12779e-11 -8.28122e-13 0)             (2.12779e-11 -8.28122e-13 0)             (2.2935e-11 9.45225e-13 0)             (2.2935e-11 9.45225e-13 0)             (2.2935e-11 9.45225e-13 0)             (2.36308e-11 4.63651e-12 0)             (2.36308e-11 4.63651e-12 0)             (2.35834e-11 6.73447e-12 0)             (2.35834e-11 6.73447e-12 0)             (2.29155e-11 8.28803e-12 0)             (2.29155e-11 8.28803e-12 0)             (2.18202e-11 9.0939e-12 0)             (2.18202e-11 9.0939e-12 0)             (2.18202e-11 9.0939e-12 0)             (2.04422e-11 9.40097e-12 0)             (2.04422e-11 9.40097e-12 0)             (1.89462e-11 9.29191e-12 0)             (1.89462e-11 9.29191e-12 0)             (1.74246e-11 8.84152e-12 0)             (1.74246e-11 8.84152e-12 0)             (1.59431e-11 8.16758e-12 0)             (1.59431e-11 8.16758e-12 0)             (1.45313e-11 7.36361e-12 0)             (1.45313e-11 7.36361e-12 0)             (1.31923e-11 6.48949e-12 0)             (1.1924e-11 5.59332e-12 0)             (1.1924e-11 5.59332e-12 0)             (1.07212e-11 4.70716e-12 0)             (1.07212e-11 4.70716e-12 0)             (9.57752e-12 3.85603e-12 0)             (9.57752e-12 3.85603e-12 0)             (8.48297e-12 3.06562e-12 0)             (7.43602e-12 2.37015e-12 0)             (7.43602e-12 2.37015e-12 0)             (6.42797e-12 1.7428e-12 0)             (5.45981e-12 1.14899e-12 0)             (5.45981e-12 1.14899e-12 0)             (4.53531e-12 6.02963e-13 0)             (3.64616e-12 8.43705e-14 0)             (3.64616e-12 8.43705e-14 0)             (2.78329e-12 -3.73568e-13 0)             (1.94583e-12 -7.54854e-13 0)             (1.13387e-12 -1.11508e-12 0)             (1.13387e-12 -1.11508e-12 0)             (3.53274e-13 -1.47656e-12 0)             (-3.96684e-13 -1.81665e-12 0)             (-1.11338e-12 -2.12696e-12 0)             (-1.80063e-12 -2.40312e-12 0)             (-2.45745e-12 -2.6412e-12 0)             (-3.08629e-12 -2.8512e-12 0)             (-3.68711e-12 -3.02776e-12 0)             (-4.2634e-12 -3.16445e-12 0)             (-4.81356e-12 -3.27471e-12 0)             (-5.33809e-12 -3.3731e-12 0)             (-5.83784e-12 -3.45331e-12 0)             (-6.31353e-12 -3.51104e-12 0)             (-6.76467e-12 -3.55537e-12 0)             (-7.1914e-12 -3.58425e-12 0)             (-7.59595e-12 -3.5919e-12 0)             (-8.33625e-12 -3.58982e-12 0)             (-8.67307e-12 -3.55611e-12 0)             (-8.98815e-12 -3.51657e-12 0)             (-9.55801e-12 -3.4205e-12 0)             (-9.81485e-12 -3.35348e-12 0)             (-1.02784e-11 -3.20978e-12 0)             (-1.06794e-11 -3.0146e-12 0)             (-1.08577e-11 -2.93242e-12 0)             (-1.11778e-11 -2.69517e-12 0)             (-1.14499e-11 -2.49701e-12 0)             (-1.16815e-11 -2.28249e-12 0)             (-1.18761e-11 -2.08019e-12 0)             (-1.21106e-11 -1.72923e-12 0)             (-1.22335e-11 -1.51422e-12 0)             (-1.23764e-11 -1.19463e-12 0)             (-1.24781e-11 -8.65838e-13 0)             (-1.25649e-11 -5.15192e-13 0)
          0.4             (2.52438e-11 -4.37428e-13 0)             (2.52438e-11 -4.37428e-13 0)             (2.74592e-11 3.09678e-12 0)             (2.74592e-11 3.09678e-12 0)             (2.74592e-11 3.09678e-12 0)             (2.81033e-11 8.09502e-12 0)             (2.81033e-11 8.09502e-12 0)             (2.78637e-11 1.019e-11 0)             (2.78637e-11 1.019e-11 0)             (2.68599e-11 1.17845e-11 0)             (2.68599e-11 1.17845e-11 0)             (2.53578e-11 1.25166e-11 0)             (2.53578e-11 1.25166e-11 0)             (2.53578e-11 1.25166e-11 0)             (2.35542e-11 1.26168e-11 0)             (2.35542e-11 1.26168e-11 0)             (2.16209e-11 1.21487e-11 0)             (2.16209e-11 1.21487e-11 0)             (1.96385e-11 1.1291e-11 0)             (1.96385e-11 1.1291e-11 0)             (1.7673e-11 1.02381e-11 0)             (1.7673e-11 1.02381e-11 0)             (1.57572e-11 9.09328e-12 0)             (1.57572e-11 9.09328e-12 0)             (1.39007e-11 7.91648e-12 0)             (1.21015e-11 6.75777e-12 0)             (1.21015e-11 6.75777e-12 0)             (1.0357e-11 5.63985e-12 0)             (1.0357e-11 5.63985e-12 0)             (8.66216e-12 4.58298e-12 0)             (8.66216e-12 4.58298e-12 0)             (7.01112e-12 3.6044e-12 0)             (5.40878e-12 2.74428e-12 0)             (5.40878e-12 2.74428e-12 0)             (3.85154e-12 2.05401e-12 0)             (2.34348e-12 1.4833e-12 0)             (2.34348e-12 1.4833e-12 0)             (8.80577e-13 9.60875e-13 0)             (-5.48382e-13 4.75607e-13 0)             (-5.48382e-13 4.75607e-13 0)             (-1.94776e-12 3.03344e-14 0)             (-3.31689e-12 -3.82667e-13 0)             (-4.65142e-12 -7.49565e-13 0)             (-4.65142e-12 -7.49565e-13 0)             (-5.94891e-12 -1.07881e-12 0)             (-7.2072e-12 -1.38948e-12 0)             (-8.42309e-12 -1.67277e-12 0)             (-9.59475e-12 -1.92925e-12 0)             (-1.07231e-11 -2.15734e-12 0)             (-1.18077e-11 -2.35177e-12 0)             (-1.2846e-11 -2.52088e-12 0)             (-1.38409e-11 -2.67356e-12 0)             (-1.47901e-11 -2.80616e-12 0)             (-1.56942e-11 -2.91229e-12 0)             (-1.65532e-11 -2.99642e-12 0)             (-1.73684e-11 -3.05316e-12 0)             (-1.81408e-11 -3.09909e-12 0)             (-1.88711e-11 -3.13443e-12 0)             (-1.95619e-11 -3.14947e-12 0)             (-2.08251e-11 -3.13776e-12 0)             (-2.14008e-11 -3.11637e-12 0)             (-2.19417e-11 -3.08869e-12 0)             (-2.29247e-11 -3.00154e-12 0)             (-2.33704e-11 -2.94578e-12 0)             (-2.41774e-11 -2.82948e-12 0)             (-2.48789e-11 -2.67808e-12 0)             (-2.51919e-11 -2.59519e-12 0)             (-2.57525e-11 -2.42998e-12 0)             (-2.623e-11 -2.27214e-12 0)             (-2.66336e-11 -2.09414e-12 0)             (-2.69714e-11 -1.91635e-12 0)             (-2.73721e-11 -1.63438e-12 0)             (-2.7578e-11 -1.43815e-12 0)             (-2.78132e-11 -1.16019e-12 0)             (-2.79726e-11 -8.93378e-13 0)             (-2.80955e-11 -5.19169e-13 0)
          0.5             (2.71394e-11 1.07677e-12 0)             (2.71394e-11 1.07677e-12 0)             (2.89606e-11 4.59773e-12 0)             (2.89606e-11 4.59773e-12 0)             (2.89606e-11 4.59773e-12 0)             (2.86518e-11 7.3983e-12 0)             (2.86518e-11 7.3983e-12 0)             (2.78638e-11 8.42008e-12 0)             (2.78638e-11 8.42008e-12 0)             (2.64699e-11 9.28343e-12 0)             (2.64699e-11 9.28343e-12 0)             (2.47551e-11 9.49773e-12 0)             (2.47551e-11 9.49773e-12 0)             (2.47551e-11 9.49773e-12 0)             (2.2863e-11 9.35918e-12 0)             (2.2863e-11 9.35918e-12 0)             (2.09298e-11 8.89614e-12 0)             (2.09298e-11 8.89614e-12 0)             (1.90093e-11 8.22193e-12 0)             (1.90093e-11 8.22193e-12 0)             (1.71544e-11 7.48359e-12 0)             (1.71544e-11 7.48359e-12 0)             (1.53926e-11 6.68215e-12 0)             (1.53926e-11 6.68215e-12 0)             (1.37244e-11 5.77998e-12 0)             (1.21408e-11 4.83278e-12 0)             (1.21408e-11 4.83278e-12 0)             (1.06341e-11 3.90556e-12 0)             (1.06341e-11 3.90556e-12 0)             (9.19682e-12 3.03424e-12 0)             (9.19682e-12 3.03424e-12 0)             (7.81819e-12 2.25601e-12 0)             (6.494e-12 1.5777e-12 0)             (6.494e-12 1.5777e-12 0)             (5.21512e-12 9.69383e-13 0)             (3.97521e-12 4.05531e-13 0)             (3.97521e-12 4.05531e-13 0)             (2.77223e-12 -1.1105e-13 0)             (1.60142e-12 -5.69147e-13 0)             (1.60142e-12 -5.69147e-13 0)             (4.60812e-13 -9.74094e-13 0)             (-6.5571e-13 -1.34521e-12 0)             (-1.74611e-12 -1.68328e-12 0)             (-1.74611e-12 -1.68328e-12 0)             (-2.80623e-12 -1.97541e-12 0)             (-3.83871e-12 -2.23451e-12 0)             (-4.83948e-12 -2.47377e-12 0)             (-5.80815e-12 -2.70193e-12 0)             (-6.74388e-12 -2.89738e-12 0)             (-7.64547e-12 -3.0644e-12 0)             (-8.51018e-12 -3.22125e-12 0)             (-9.33965e-12 -3.34735e-12 0)             (-1.01304e-11 -3.44822e-12 0)             (-1.0885e-11 -3.53905e-12 0)             (-1.16014e-11 -3.60233e-12 0)             (-1.22828e-11 -3.63672e-12 0)             (-1.29273e-11 -3.66463e-12 0)             (-1.35374e-11 -3.67485e-12 0)             (-1.41127e-11 -3.67069e-12 0)             (-1.51653e-11 -3.62496e-12 0)             (-1.56426e-11 -3.57523e-12 0)             (-1.60908e-11 -3.53252e-12 0)             (-1.69081e-11 -3.41114e-12 0)             (-1.72797e-11 -3.34436e-12 0)             (-1.7951e-11 -3.20169e-12 0)             (-1.85328e-11 -3.02302e-12 0)             (-1.87925e-11 -2.94689e-12 0)             (-1.92582e-11 -2.73755e-12 0)             (-1.96559e-11 -2.55435e-12 0)             (-1.99924e-11 -2.3459e-12 0)             (-2.02747e-11 -2.14379e-12 0)             (-2.06119e-11 -1.82288e-12 0)             (-2.07878e-11 -1.57349e-12 0)             (-2.09907e-11 -1.25504e-12 0)             (-2.11321e-11 -9.22498e-13 0)             (-2.12491e-11 -4.14301e-13 0)
          0.6             (7.99798e-14 -3.79517e-12 0)             (7.99798e-14 -3.79517e-12 0)             (1.15329e-12 -1.90243e-12 0)             (1.15329e-12 -1.90243e-12 0)             (1.15329e-12 -1.90243e-12 0)             (2.18017e-12 4.84222e-12 0)             (2.18017e-12 4.84222e-12 0)             (3.68336e-12 7.65037e-12 0)             (3.68336e-12 7.65037e-12 0)             (5.07605e-12 1.04222e-11 0)             (5.07605e-12 1.04222e-11 0)             (6.3859e-12 1.21097e-11 0)             (6.3859e-12 1.21097e-11 0)             (6.3859e-12 1.21097e-11 0)             (7.49983e-12 1.3159e-11 0)             (7.49983e-12 1.3159e-11 0)             (8.40119e-12 1.37237e-11 0)             (8.40119e-12 1.37237e-11 0)             (9.05355e-12 1.39424e-11 0)             (9.05355e-12 1.39424e-11 0)             (9.45792e-12 1.39474e-11 0)             (9.45792e-12 1.39474e-11 0)             (9.62619e-12 1.38637e-11 0)             (9.62619e-12 1.38637e-11 0)             (9.58104e-12 1.37577e-11 0)             (9.34692e-12 1.36613e-11 0)             (9.34692e-12 1.36613e-11 0)             (8.95293e-12 1.35979e-11 0)             (8.95293e-12 1.35979e-11 0)             (8.42735e-12 1.35781e-11 0)             (8.42735e-12 1.35781e-11 0)             (7.78974e-12 1.36022e-11 0)             (7.0665e-12 1.36651e-11 0)             (7.0665e-12 1.36651e-11 0)             (6.2718e-12 1.37676e-11 0)             (5.42273e-12 1.38955e-11 0)             (5.42273e-12 1.38955e-11 0)             (4.5326e-12 1.40283e-11 0)             (3.61162e-12 1.41518e-11 0)             (3.61162e-12 1.41518e-11 0)             (2.66873e-12 1.42241e-11 0)             (1.71488e-12 1.42452e-11 0)             (7.60692e-13 1.42379e-11 0)             (7.60692e-13 1.42379e-11 0)             (-1.82037e-13 1.41795e-11 0)             (-1.10827e-12 1.40623e-11 0)             (-2.0078e-12 1.38959e-11 0)             (-2.87793e-12 1.36781e-11 0)             (-3.71284e-12 1.34089e-11 0)             (-4.51068e-12 1.31285e-11 0)             (-5.27116e-12 1.28598e-11 0)             (-5.99754e-12 1.25844e-11 0)             (-6.68665e-12 1.23022e-11 0)             (-7.34118e-12 1.20148e-11 0)             (-7.96183e-12 1.17156e-11 0)             (-8.54789e-12 1.14107e-11 0)             (-9.10055e-12 1.10962e-11 0)             (-9.62212e-12 1.07805e-11 0)             (-1.01125e-11 1.04516e-11 0)             (-1.1004e-11 9.78079e-12 0)             (-1.14069e-11 9.4343e-12 0)             (-1.17826e-11 9.07788e-12 0)             (-1.24788e-11 8.38993e-12 0)             (-1.27946e-11 8.03797e-12 0)             (-1.33616e-11 7.32527e-12 0)             (-1.38479e-11 6.63969e-12 0)             (-1.40625e-11 6.30548e-12 0)             (-1.4443e-11 5.6462e-12 0)             (-1.47626e-11 4.98429e-12 0)             (-1.50272e-11 4.36407e-12 0)             (-1.52442e-11 3.74571e-12 0)             (-1.54929e-11 2.91955e-12 0)             (-1.56143e-11 2.41162e-12 0)             (-1.57439e-11 1.68059e-12 0)             (-1.58204e-11 1.01066e-12 0)             (-1.58598e-11 2.92478e-13 0)
          0.7             (6.46641e-12 -4.10456e-12 0)             (6.46641e-12 -4.10456e-12 0)             (7.66387e-12 -1.67219e-12 0)             (7.66387e-12 -1.67219e-12 0)             (7.66387e-12 -1.67219e-12 0)             (8.76846e-12 6.01348e-12 0)             (8.76846e-12 6.01348e-12 0)             (1.03398e-11 9.44193e-12 0)             (1.03398e-11 9.44193e-12 0)             (1.18385e-11 1.30672e-11 0)             (1.18385e-11 1.30672e-11 0)             (1.32919e-11 1.52583e-11 0)             (1.32919e-11 1.52583e-11 0)             (1.32919e-11 1.52583e-11 0)             (1.45455e-11 1.65402e-11 0)             (1.45455e-11 1.65402e-11 0)             (1.55553e-11 1.70967e-11 0)             (1.55553e-11 1.70967e-11 0)             (1.62634e-11 1.71517e-11 0)             (1.62634e-11 1.71517e-11 0)             (1.66615e-11 1.69198e-11 0)             (1.66615e-11 1.69198e-11 0)             (1.67542e-11 1.65428e-11 0)             (1.67542e-11 1.65428e-11 0)             (1.65651e-11 1.61382e-11 0)             (1.61231e-11 1.57681e-11 0)             (1.61231e-11 1.57681e-11 0)             (1.54615e-11 1.54552e-11 0)             (1.54615e-11 1.54552e-11 0)             (1.46157e-11 1.52108e-11 0)             (1.46157e-11 1.52108e-11 0)             (1.36166e-11 1.50291e-11 0)             (1.24965e-11 1.48934e-11 0)             (1.24965e-11 1.48934e-11 0)             (1.12815e-11 1.47681e-11 0)             (9.99539e-12 1.46297e-11 0)             (9.99539e-12 1.46297e-11 0)             (8.666e-12 1.4471e-11 0)             (7.31417e-12 1.42843e-11 0)             (7.31417e-12 1.42843e-11 0)             (5.95965e-12 1.40381e-11 0)             (4.616e-12 1.37672e-11 0)             (3.29235e-12 1.35353e-11 0)             (3.29235e-12 1.35353e-11 0)             (2.00037e-12 1.33306e-11 0)             (7.42347e-13 1.31063e-11 0)             (-4.73793e-13 1.28716e-11 0)             (-1.64664e-12 1.26292e-11 0)             (-2.77411e-12 1.23749e-11 0)             (-3.85408e-12 1.21149e-11 0)             (-4.88396e-12 1.18318e-11 0)             (-5.86447e-12 1.15286e-11 0)             (-6.79401e-12 1.12172e-11 0)             (-7.673e-12 1.0891e-11 0)             (-8.50193e-12 1.0553e-11 0)             (-9.28249e-12 1.02213e-11 0)             (-1.00153e-11 9.89161e-12 0)             (-1.07033e-11 9.56722e-12 0)             (-1.13476e-11 9.22723e-12 0)             (-1.25129e-11 8.56157e-12 0)             (-1.30364e-11 8.21805e-12 0)             (-1.35231e-11 7.89281e-12 0)             (-1.44298e-11 7.2212e-12 0)             (-1.4839e-11 6.88404e-12 0)             (-1.55688e-11 6.2276e-12 0)             (-1.61889e-11 5.57602e-12 0)             (-1.64606e-11 5.25791e-12 0)             (-1.69391e-11 4.65794e-12 0)             (-1.73354e-11 4.04395e-12 0)             (-1.76583e-11 3.48636e-12 0)             (-1.79179e-11 2.94648e-12 0)             (-1.82011e-11 2.20731e-12 0)             (-1.83306e-11 1.75918e-12 0)             (-1.84495e-11 1.16393e-12 0)             (-1.84908e-11 6.2112e-13 0)             (-1.84533e-11 1.19296e-15 0)
          0.8             (-2.48888e-11 -2.95586e-12 0)             (-2.48888e-11 -2.95586e-12 0)             (-2.60633e-11 -4.06216e-12 0)             (-2.60633e-11 -4.06216e-12 0)             (-2.60633e-11 -4.06216e-12 0)             (-2.59183e-11 -4.42335e-12 0)             (-2.59183e-11 -4.42335e-12 0)             (-2.50122e-11 -6.27206e-12 0)             (-2.50122e-11 -6.27206e-12 0)             (-2.35862e-11 -5.65576e-12 0)             (-2.35862e-11 -5.65576e-12 0)             (-2.16824e-11 -4.63513e-12 0)             (-2.16824e-11 -4.63513e-12 0)             (-2.16824e-11 -4.63513e-12 0)             (-1.95695e-11 -2.83181e-12 0)             (-1.95695e-11 -2.83181e-12 0)             (-1.73995e-11 -5.9604e-13 0)             (-1.73995e-11 -5.9604e-13 0)             (-1.52909e-11 1.88675e-12 0)             (-1.52909e-11 1.88675e-12 0)             (-1.32973e-11 4.46212e-12 0)             (-1.32973e-11 4.46212e-12 0)             (-1.14458e-11 7.01272e-12 0)             (-1.14458e-11 7.01272e-12 0)             (-9.74045e-12 9.43784e-12 0)             (-8.17764e-12 1.16638e-11 0)             (-8.17764e-12 1.16638e-11 0)             (-6.74165e-12 1.36697e-11 0)             (-6.74165e-12 1.36697e-11 0)             (-5.41632e-12 1.54365e-11 0)             (-5.41632e-12 1.54365e-11 0)             (-4.19151e-12 1.69689e-11 0)             (-3.05021e-12 1.82781e-11 0)             (-3.05021e-12 1.82781e-11 0)             (-1.98502e-12 1.93862e-11 0)             (-9.85861e-13 2.03022e-11 0)             (-9.85861e-13 2.03022e-11 0)             (-4.88626e-14 2.10221e-11 0)             (8.34097e-13 2.15755e-11 0)             (8.34097e-13 2.15755e-11 0)             (1.68203e-12 2.19617e-11 0)             (2.48663e-12 2.22187e-11 0)             (3.24625e-12 2.23907e-11 0)             (3.24625e-12 2.23907e-11 0)             (3.96193e-12 2.2456e-11 0)             (4.63311e-12 2.24071e-11 0)             (5.26121e-12 2.22653e-11 0)             (5.84691e-12 2.2047e-11 0)             (6.39025e-12 2.17579e-11 0)             (6.89405e-12 2.14099e-11 0)             (7.36175e-12 2.10117e-11 0)             (7.79428e-12 2.05766e-11 0)             (8.19645e-12 2.01059e-11 0)             (8.56941e-12 1.96157e-11 0)             (8.91481e-12 1.91129e-11 0)             (9.23534e-12 1.85859e-11 0)             (9.53217e-12 1.80462e-11 0)             (9.80667e-12 1.75005e-11 0)             (1.0061e-11 1.69416e-11 0)             (1.05103e-11 1.58063e-11 0)             (1.07095e-11 1.52372e-11 0)             (1.08935e-11 1.46599e-11 0)             (1.11628e-11 1.35055e-11 0)             (1.12731e-11 1.29327e-11 0)             (1.14667e-11 1.17952e-11 0)             (1.16329e-11 1.06961e-11 0)             (1.17076e-11 1.01386e-11 0)             (1.18416e-11 9.07254e-12 0)             (1.19618e-11 8.0361e-12 0)             (1.20707e-11 7.02875e-12 0)             (1.21706e-11 6.06711e-12 0)             (1.23122e-11 4.72593e-12 0)             (1.24021e-11 3.9235e-12 0)             (1.25327e-11 2.77217e-12 0)             (1.26659e-11 1.74445e-12 0)             (1.28429e-11 4.89719e-13 0)