# Probe 0 (15.31 -0.61 0)
# Probe 1 (15.31 -0.6 0)
# Probe 2 (15.31 -0.59 0)
# Probe 3 (15.31 -0.58 0)
# Probe 4 (15.31 -0.57 0)
# Probe 5 (15.31 -0.56 0)
# Probe 6 (15.31 -0.55 0)
# Probe 7 (15.31 -0.54 0)
# Probe 8 (15.31 -0.53 0)
# Probe 9 (15.31 -0.52 0)
# Probe 10 (15.31 -0.51 0)
# Probe 11 (15.31 -0.5 0)
# Probe 12 (15.31 -0.49 0)
# Probe 13 (15.31 -0.48 0)
# Probe 14 (15.31 -0.47 0)
# Probe 15 (15.31 -0.46 0)
# Probe 16 (15.31 -0.45 0)
# Probe 17 (15.31 -0.44 0)
# Probe 18 (15.31 -0.43 0)
# Probe 19 (15.31 -0.42 0)
# Probe 20 (15.31 -0.41 0)
# Probe 21 (15.31 -0.4 0)
# Probe 22 (15.31 -0.39 0)
# Probe 23 (15.31 -0.38 0)
# Probe 24 (15.31 -0.37 0)
# Probe 25 (15.31 -0.36 0)
# Probe 26 (15.31 -0.35 0)
# Probe 27 (15.31 -0.34 0)
# Probe 28 (15.31 -0.33 0)
# Probe 29 (15.31 -0.32 0)
# Probe 30 (15.31 -0.31 0)
# Probe 31 (15.31 -0.3 0)
# Probe 32 (15.31 -0.29 0)
# Probe 33 (15.31 -0.28 0)
# Probe 34 (15.31 -0.27 0)
# Probe 35 (15.31 -0.26 0)
# Probe 36 (15.31 -0.25 0)
# Probe 37 (15.31 -0.24 0)
# Probe 38 (15.31 -0.23 0)
# Probe 39 (15.31 -0.22 0)
# Probe 40 (15.31 -0.21 0)
# Probe 41 (15.31 -0.2 0)
# Probe 42 (15.31 -0.19 0)
# Probe 43 (15.31 -0.18 0)
# Probe 44 (15.31 -0.17 0)
# Probe 45 (15.31 -0.16 0)
# Probe 46 (15.31 -0.15 0)
# Probe 47 (15.31 -0.14 0)
# Probe 48 (15.31 -0.13 0)
# Probe 49 (15.31 -0.12 0)
# Probe 50 (15.31 -0.11 0)
# Probe 51 (15.31 -0.1 0)
# Probe 52 (15.31 -0.09 0)
# Probe 53 (15.31 -0.08 0)
# Probe 54 (15.31 -0.07 0)
# Probe 55 (15.31 -0.06 0)
# Probe 56 (15.31 -0.05 0)
# Probe 57 (15.31 -0.04 0)
# Probe 58 (15.31 -0.03 0)
# Probe 59 (15.31 -0.02 0)
# Probe 60 (15.31 -0.01 0)
# Probe 61 (15.31 0 0)
# Probe 62 (15.31 0.01 0)
# Probe 63 (15.31 0.02 0)
# Probe 64 (15.31 0.03 0)
# Probe 65 (15.31 0.04 0)
# Probe 66 (15.31 0.05 0)
# Probe 67 (15.31 0.06 0)
# Probe 68 (15.31 0.07 0)
# Probe 69 (15.31 0.08 0)
# Probe 70 (15.31 0.09 0)
# Probe 71 (15.31 0.1 0)
# Probe 72 (15.31 0.11 0)
# Probe 73 (15.31 0.12 0)
# Probe 74 (15.31 0.13 0)
# Probe 75 (15.31 0.14 0)
#       Probe             0             1             2             3             4             5             6             7             8             9            10            11            12            13            14            15            16            17            18            19            20            21            22            23            24            25            26            27            28            29            30            31            32            33            34            35            36            37            38            39            40            41            42            43            44            45            46            47            48            49            50            51            52            53            54            55            56            57            58            59            60            61            62            63            64            65            66            67            68            69            70            71            72            73            74            75
#        Time
          0.1             (1.47981e-11 -1.24229e-12 0)             (1.38856e-11 -2.97534e-12 0)             (1.38856e-11 -2.97534e-12 0)             (1.33062e-11 -3.59735e-12 0)             (1.33062e-11 -3.59735e-12 0)             (1.29426e-11 -3.63962e-12 0)             (1.27827e-11 -3.33662e-12 0)             (1.27827e-11 -3.33662e-12 0)             (1.27929e-11 -2.83308e-12 0)             (1.2925e-11 -2.25067e-12 0)             (1.2925e-11 -2.25067e-12 0)             (1.31409e-11 -1.69447e-12 0)             (1.31409e-11 -1.69447e-12 0)             (1.34077e-11 -1.21049e-12 0)             (1.36972e-11 -8.23124e-13 0)             (1.36972e-11 -8.23124e-13 0)             (1.39848e-11 -5.37977e-13 0)             (1.42538e-11 -3.45431e-13 0)             (1.44912e-11 -2.356e-13 0)             (1.44912e-11 -2.356e-13 0)             (1.46881e-11 -1.96049e-13 0)             (1.48383e-11 -2.17424e-13 0)             (1.48383e-11 -2.17424e-13 0)             (1.49399e-11 -3.09432e-13 0)             (1.49896e-11 -4.68098e-13 0)             (1.49877e-11 -6.71303e-13 0)             (1.49877e-11 -6.71303e-13 0)             (1.49356e-11 -9.11141e-13 0)             (1.48365e-11 -1.1841e-12 0)             (1.46926e-11 -1.47156e-12 0)             (1.45057e-11 -1.77873e-12 0)             (1.45057e-11 -1.77873e-12 0)             (1.42797e-11 -2.09679e-12 0)             (1.40153e-11 -2.41378e-12 0)             (1.37177e-11 -2.74632e-12 0)             (1.33905e-11 -3.08318e-12 0)             (1.30401e-11 -3.43392e-12 0)             (1.30401e-11 -3.43392e-12 0)             (1.26714e-11 -3.79583e-12 0)             (1.22925e-11 -4.15786e-12 0)             (1.19062e-11 -4.52004e-12 0)             (1.15126e-11 -4.85793e-12 0)             (1.11138e-11 -5.17629e-12 0)             (1.07093e-11 -5.47815e-12 0)             (1.02996e-11 -5.77095e-12 0)             (9.88661e-12 -6.06167e-12 0)             (9.4721e-12 -6.32612e-12 0)             (9.05657e-12 -6.57054e-12 0)             (8.6411e-12 -6.7887e-12 0)             (8.22809e-12 -6.96087e-12 0)             (7.81707e-12 -7.09597e-12 0)             (7.41274e-12 -7.1981e-12 0)             (7.01629e-12 -7.26442e-12 0)             (6.25282e-12 -7.38401e-12 0)             (5.89148e-12 -7.45979e-12 0)             (5.54474e-12 -7.49799e-12 0)             (5.21382e-12 -7.50802e-12 0)             (4.89789e-12 -7.49866e-12 0)             (4.30896e-12 -7.401e-12 0)             (4.03517e-12 -7.31265e-12 0)             (3.77435e-12 -7.21675e-12 0)             (3.52686e-12 -7.09401e-12 0)             (3.06914e-12 -6.81128e-12 0)             (2.85789e-12 -6.6411e-12 0)             (2.47225e-12 -6.26971e-12 0)             (2.2962e-12 -6.06758e-12 0)             (2.13075e-12 -5.85006e-12 0)             (1.83355e-12 -5.42272e-12 0)             (1.57755e-12 -4.94608e-12 0)             (1.4645e-12 -4.7121e-12 0)             (1.26767e-12 -4.20653e-12 0)             (1.18287e-12 -3.95373e-12 0)             (1.03907e-12 -3.41212e-12 0)             (9.30506e-13 -2.87173e-12 0)             (8.53962e-13 -2.28006e-12 0)             (8.07739e-13 -1.73302e-12 0)
          0.2             (-1.6273e-10 -1.43865e-12 0)             (-1.62245e-10 -1.96825e-12 0)             (-1.62245e-10 -1.96825e-12 0)             (-1.61391e-10 -3.3142e-13 0)             (-1.61391e-10 -3.3142e-13 0)             (-1.60484e-10 9.2482e-13 0)             (-1.59559e-10 1.86943e-12 0)             (-1.59559e-10 1.86943e-12 0)             (-1.58649e-10 2.63325e-12 0)             (-1.57771e-10 3.2952e-12 0)             (-1.57771e-10 3.2952e-12 0)             (-1.56929e-10 3.88005e-12 0)             (-1.56929e-10 3.88005e-12 0)             (-1.56125e-10 4.40842e-12 0)             (-1.5536e-10 4.90575e-12 0)             (-1.5536e-10 4.90575e-12 0)             (-1.54633e-10 5.36991e-12 0)             (-1.53945e-10 5.80778e-12 0)             (-1.53292e-10 6.22271e-12 0)             (-1.53292e-10 6.22271e-12 0)             (-1.52674e-10 6.62607e-12 0)             (-1.52086e-10 7.01079e-12 0)             (-1.52086e-10 7.01079e-12 0)             (-1.5153e-10 7.34999e-12 0)             (-1.51002e-10 7.62459e-12 0)             (-1.50497e-10 7.85601e-12 0)             (-1.50497e-10 7.85601e-12 0)             (-1.50011e-10 8.06624e-12 0)             (-1.49534e-10 8.24827e-12 0)             (-1.49064e-10 8.40283e-12 0)             (-1.48593e-10 8.52628e-12 0)             (-1.48593e-10 8.52628e-12 0)             (-1.48121e-10 8.62498e-12 0)             (-1.47647e-10 8.70064e-12 0)             (-1.47172e-10 8.74904e-12 0)             (-1.46698e-10 8.79607e-12 0)             (-1.46226e-10 8.845e-12 0)             (-1.46226e-10 8.845e-12 0)             (-1.45758e-10 8.90878e-12 0)             (-1.45298e-10 8.99329e-12 0)             (-1.44846e-10 9.04938e-12 0)             (-1.44406e-10 9.07462e-12 0)             (-1.43975e-10 9.07815e-12 0)             (-1.43555e-10 9.04302e-12 0)             (-1.43149e-10 8.98905e-12 0)             (-1.42754e-10 8.9231e-12 0)             (-1.42374e-10 8.82756e-12 0)             (-1.42009e-10 8.71457e-12 0)             (-1.41659e-10 8.59936e-12 0)             (-1.41327e-10 8.47129e-12 0)             (-1.41013e-10 8.33142e-12 0)             (-1.40717e-10 8.18825e-12 0)             (-1.4044e-10 8.0385e-12 0)             (-1.39936e-10 7.75351e-12 0)             (-1.39708e-10 7.58821e-12 0)             (-1.39495e-10 7.40892e-12 0)             (-1.39295e-10 7.21602e-12 0)             (-1.39108e-10 7.00871e-12 0)             (-1.38768e-10 6.57305e-12 0)             (-1.38615e-10 6.35071e-12 0)             (-1.38471e-10 6.12156e-12 0)             (-1.38336e-10 5.88302e-12 0)             (-1.38094e-10 5.40615e-12 0)             (-1.37986e-10 5.17282e-12 0)             (-1.37797e-10 4.68903e-12 0)             (-1.37713e-10 4.46174e-12 0)             (-1.37637e-10 4.21887e-12 0)             (-1.375e-10 3.75367e-12 0)             (-1.37382e-10 3.30293e-12 0)             (-1.37328e-10 3.07207e-12 0)             (-1.37233e-10 2.63129e-12 0)             (-1.3719e-10 2.41252e-12 0)             (-1.37113e-10 1.99721e-12 0)             (-1.37046e-10 1.56791e-12 0)             (-1.36989e-10 1.17541e-12 0)             (-1.36942e-10 8.40995e-13 0)
          0.3             (-6.04657e-12 1.9492e-12 0)             (-6.82311e-12 2.51036e-12 0)             (-6.82311e-12 2.51036e-12 0)             (-7.46308e-12 1.53585e-13 0)             (-7.46308e-12 1.53585e-13 0)             (-8.0425e-12 -1.76994e-12 0)             (-8.40249e-12 -3.56114e-12 0)             (-8.40249e-12 -3.56114e-12 0)             (-8.51571e-12 -5.10546e-12 0)             (-8.38893e-12 -6.39833e-12 0)             (-8.38893e-12 -6.39833e-12 0)             (-8.0406e-12 -7.46066e-12 0)             (-8.0406e-12 -7.46066e-12 0)             (-7.50686e-12 -8.30992e-12 0)             (-6.82454e-12 -8.95324e-12 0)             (-6.82454e-12 -8.95324e-12 0)             (-6.03461e-12 -9.4143e-12 0)             (-5.1737e-12 -9.71725e-12 0)             (-4.27943e-12 -9.88686e-12 0)             (-4.27943e-12 -9.88686e-12 0)             (-3.38158e-12 -9.94476e-12 0)             (-2.50275e-12 -9.91396e-12 0)             (-2.50275e-12 -9.91396e-12 0)             (-1.66082e-12 -9.8037e-12 0)             (-8.71849e-13 -9.60088e-12 0)             (-1.49671e-13 -9.32148e-12 0)             (-1.49671e-13 -9.32148e-12 0)             (4.97505e-13 -8.97309e-12 0)             (1.06544e-12 -8.56915e-12 0)             (1.54884e-12 -8.13774e-12 0)             (1.94852e-12 -7.68123e-12 0)             (1.94852e-12 -7.68123e-12 0)             (2.26318e-12 -7.21318e-12 0)             (2.49639e-12 -6.73818e-12 0)             (2.65172e-12 -6.26414e-12 0)             (2.73255e-12 -5.80426e-12 0)             (2.74443e-12 -5.35003e-12 0)             (2.74443e-12 -5.35003e-12 0)             (2.69131e-12 -4.91201e-12 0)             (2.57911e-12 -4.5037e-12 0)             (2.41468e-12 -4.11462e-12 0)             (2.20125e-12 -3.74673e-12 0)             (1.94523e-12 -3.41072e-12 0)             (1.65169e-12 -3.10841e-12 0)             (1.32594e-12 -2.83999e-12 0)             (9.73674e-13 -2.61378e-12 0)             (6.01474e-13 -2.41002e-12 0)             (2.1025e-13 -2.21402e-12 0)             (-1.95004e-13 -2.06005e-12 0)             (-6.08584e-13 -1.94198e-12 0)             (-1.02968e-12 -1.84033e-12 0)             (-1.45199e-12 -1.75557e-12 0)             (-1.87611e-12 -1.69024e-12 0)             (-2.71345e-12 -1.59306e-12 0)             (-3.12484e-12 -1.56439e-12 0)             (-3.52831e-12 -1.53037e-12 0)             (-3.92362e-12 -1.48989e-12 0)             (-4.31013e-12 -1.45044e-12 0)             (-5.05293e-12 -1.35321e-12 0)             (-5.40776e-12 -1.31144e-12 0)             (-5.75158e-12 -1.25838e-12 0)             (-6.08408e-12 -1.20679e-12 0)             (-6.7086e-12 -1.11722e-12 0)             (-7.00268e-12 -1.06484e-12 0)             (-7.5539e-12 -9.76813e-13 0)             (-7.81198e-12 -9.27848e-13 0)             (-8.05853e-12 -8.82271e-13 0)             (-8.51582e-12 -7.9231e-13 0)             (-8.92535e-12 -6.93899e-13 0)             (-9.1131e-12 -6.4544e-13 0)             (-9.4547e-12 -5.29131e-13 0)             (-9.60845e-12 -4.81435e-13 0)             (-9.88572e-12 -3.74903e-13 0)             (-1.01223e-11 -2.53415e-13 0)             (-1.03204e-11 -1.26651e-13 0)             (-1.04846e-11 -1.88726e-14 0)
          0.4             (6.9467e-12 8.40194e-13 0)             (7.68152e-12 1.63527e-12 0)             (7.68152e-12 1.63527e-12 0)             (8.07075e-12 1.49139e-12 0)             (8.07075e-12 1.49139e-12 0)             (8.17675e-12 9.48941e-13 0)             (8.06018e-12 -7.35121e-15 0)             (8.06018e-12 -7.35121e-15 0)             (7.738e-12 -1.04303e-12 0)             (7.24253e-12 -2.03309e-12 0)             (7.24253e-12 -2.03309e-12 0)             (6.61397e-12 -2.89339e-12 0)             (6.61397e-12 -2.89339e-12 0)             (5.88782e-12 -3.59089e-12 0)             (5.09551e-12 -4.10192e-12 0)             (5.09551e-12 -4.10192e-12 0)             (4.26341e-12 -4.42366e-12 0)             (3.41519e-12 -4.56556e-12 0)             (2.56772e-12 -4.55605e-12 0)             (2.56772e-12 -4.55605e-12 0)             (1.7353e-12 -4.41692e-12 0)             (9.2431e-13 -4.13924e-12 0)             (9.2431e-13 -4.13924e-12 0)             (1.43951e-13 -3.73857e-12 0)             (-5.95953e-13 -3.24477e-12 0)             (-1.29228e-12 -2.6943e-12 0)             (-1.29228e-12 -2.6943e-12 0)             (-1.93881e-12 -2.12219e-12 0)             (-2.53377e-12 -1.54041e-12 0)             (-3.0763e-12 -9.52885e-13 0)             (-3.56518e-12 -3.82314e-13 0)             (-3.56518e-12 -3.82314e-13 0)             (-4.00223e-12 1.67539e-13 0)             (-4.38614e-12 6.9491e-13 0)             (-4.72039e-12 1.1822e-12 0)             (-5.00691e-12 1.6373e-12 0)             (-5.25052e-12 2.06345e-12 0)             (-5.25052e-12 2.06345e-12 0)             (-5.45487e-12 2.44821e-12 0)             (-5.62087e-12 2.80263e-12 0)             (-5.75351e-12 3.13445e-12 0)             (-5.85656e-12 3.44335e-12 0)             (-5.93146e-12 3.73945e-12 0)             (-5.98114e-12 4.01596e-12 0)             (-6.00802e-12 4.27323e-12 0)             (-6.01601e-12 4.50319e-12 0)             (-6.00538e-12 4.69847e-12 0)             (-5.98001e-12 4.86087e-12 0)             (-5.94089e-12 5.00614e-12 0)             (-5.89057e-12 5.12902e-12 0)             (-5.83105e-12 5.2127e-12 0)             (-5.76233e-12 5.27683e-12 0)             (-5.68787e-12 5.31787e-12 0)             (-5.52304e-12 5.3439e-12 0)             (-5.43367e-12 5.3152e-12 0)             (-5.34184e-12 5.273e-12 0)             (-5.25039e-12 5.21302e-12 0)             (-5.15817e-12 5.1424e-12 0)             (-4.97914e-12 4.92775e-12 0)             (-4.89386e-12 4.82357e-12 0)             (-4.81199e-12 4.68861e-12 0)             (-4.73274e-12 4.5526e-12 0)             (-4.58577e-12 4.26998e-12 0)             (-4.51778e-12 4.11948e-12 0)             (-4.40188e-12 3.79767e-12 0)             (-4.35265e-12 3.63508e-12 0)             (-4.30872e-12 3.47229e-12 0)             (-4.23879e-12 3.11839e-12 0)             (-4.18795e-12 2.76141e-12 0)             (-4.17032e-12 2.57818e-12 0)             (-4.14769e-12 2.21204e-12 0)             (-4.14304e-12 2.03821e-12 0)             (-4.1444e-12 1.66572e-12 0)             (-4.16275e-12 1.3222e-12 0)             (-4.19593e-12 9.69161e-13 0)             (-4.2418e-12 6.44415e-13 0)
          0.5             (1.47409e-12 1.03715e-12 0)             (2.24417e-12 1.92102e-12 0)             (2.24417e-12 1.92102e-12 0)             (2.53508e-12 1.47342e-12 0)             (2.53508e-12 1.47342e-12 0)             (2.6123e-12 5.07434e-13 0)             (2.47593e-12 -8.90285e-13 0)             (2.47593e-12 -8.90285e-13 0)             (2.14314e-12 -2.33102e-12 0)             (1.64126e-12 -3.67618e-12 0)             (1.64126e-12 -3.67618e-12 0)             (1.00492e-12 -4.84248e-12 0)             (1.00492e-12 -4.84248e-12 0)             (2.64912e-13 -5.78824e-12 0)             (-5.48241e-13 -6.47937e-12 0)             (-5.48241e-13 -6.47937e-12 0)             (-1.40971e-12 -6.91827e-12 0)             (-2.29342e-12 -7.12899e-12 0)             (-3.18023e-12 -7.14812e-12 0)             (-3.18023e-12 -7.14812e-12 0)             (-4.05347e-12 -7.00088e-12 0)             (-4.89757e-12 -6.70885e-12 0)             (-4.89757e-12 -6.70885e-12 0)             (-5.70427e-12 -6.29837e-12 0)             (-6.46175e-12 -5.79634e-12 0)             (-7.16788e-12 -5.23537e-12 0)             (-7.16788e-12 -5.23537e-12 0)             (-7.81715e-12 -4.63566e-12 0)             (-8.40771e-12 -4.01161e-12 0)             (-8.93876e-12 -3.38429e-12 0)             (-9.4105e-12 -2.7668e-12 0)             (-9.4105e-12 -2.7668e-12 0)             (-9.82448e-12 -2.16516e-12 0)             (-1.01825e-11 -1.59978e-12 0)             (-1.04849e-11 -1.06249e-12 0)             (-1.07373e-11 -5.56327e-13 0)             (-1.09411e-11 -7.94202e-14 0)             (-1.09411e-11 -7.94202e-14 0)             (-1.11026e-11 3.68254e-13 0)             (-1.12231e-11 7.84356e-13 0)             (-1.13051e-11 1.17539e-12 0)             (-1.1355e-11 1.54686e-12 0)             (-1.1374e-11 1.90177e-12 0)             (-1.13649e-11 2.21883e-12 0)             (-1.13307e-11 2.51813e-12 0)             (-1.12761e-11 2.79669e-12 0)             (-1.12027e-11 3.03407e-12 0)             (-1.11158e-11 3.23956e-12 0)             (-1.10156e-11 3.41569e-12 0)             (-1.09067e-11 3.55917e-12 0)             (-1.07913e-11 3.6728e-12 0)             (-1.06716e-11 3.76564e-12 0)             (-1.05503e-11 3.82391e-12 0)             (-1.03069e-11 3.88015e-12 0)             (-1.01862e-11 3.877e-12 0)             (-1.0066e-11 3.84904e-12 0)             (-9.94937e-12 3.80452e-12 0)             (-9.83371e-12 3.74767e-12 0)             (-9.61154e-12 3.61791e-12 0)             (-9.50571e-12 3.5362e-12 0)             (-9.40311e-12 3.46341e-12 0)             (-9.30318e-12 3.3616e-12 0)             (-9.11356e-12 3.17306e-12 0)             (-9.02492e-12 3.05996e-12 0)             (-8.86937e-12 2.83915e-12 0)             (-8.80178e-12 2.72049e-12 0)             (-8.74164e-12 2.60044e-12 0)             (-8.6415e-12 2.35933e-12 0)             (-8.56892e-12 2.09902e-12 0)             (-8.54317e-12 1.97543e-12 0)             (-8.51043e-12 1.70326e-12 0)             (-8.50412e-12 1.57039e-12 0)             (-8.50875e-12 1.30753e-12 0)             (-8.54022e-12 1.04466e-12 0)             (-8.59422e-12 7.77922e-13 0)             (-8.67026e-12 5.437e-13 0)
          0.6             (-1.33061e-12 1.19485e-12 0)             (-4.67934e-13 2.26809e-12 0)             (-4.67934e-13 2.26809e-12 0)             (-1.82645e-13 1.80101e-12 0)             (-1.82645e-13 1.80101e-12 0)             (-6.98056e-14 6.753e-13 0)             (-2.09521e-13 -9.49115e-13 0)             (-2.09521e-13 -9.49115e-13 0)             (-5.66785e-13 -2.62145e-12 0)             (-1.1139e-12 -4.18511e-12 0)             (-1.1139e-12 -4.18511e-12 0)             (-1.81575e-12 -5.53863e-12 0)             (-1.81575e-12 -5.53863e-12 0)             (-2.63716e-12 -6.63672e-12 0)             (-3.54465e-12 -7.45082e-12 0)             (-3.54465e-12 -7.45082e-12 0)             (-4.50923e-12 -7.98495e-12 0)             (-5.49994e-12 -8.25147e-12 0)             (-6.49496e-12 -8.28137e-12 0)             (-6.49496e-12 -8.28137e-12 0)             (-7.47198e-12 -8.1244e-12 0)             (-8.41621e-12 -7.80801e-12 0)             (-8.41621e-12 -7.80801e-12 0)             (-9.3159e-12 -7.35789e-12 0)             (-1.01605e-11 -6.81349e-12 0)             (-1.09449e-11 -6.19872e-12 0)             (-1.09449e-11 -6.19872e-12 0)             (-1.16632e-11 -5.51953e-12 0)             (-1.23117e-11 -4.81405e-12 0)             (-1.28888e-11 -4.10434e-12 0)             (-1.33967e-11 -3.39566e-12 0)             (-1.33967e-11 -3.39566e-12 0)             (-1.38369e-11 -2.70722e-12 0)             (-1.42102e-11 -2.04585e-12 0)             (-1.45214e-11 -1.41603e-12 0)             (-1.47714e-11 -8.29588e-13 0)             (-1.49667e-11 -2.68752e-13 0)             (-1.49667e-11 -2.68752e-13 0)             (-1.51114e-11 2.58973e-13 0)             (-1.5209e-11 7.34266e-13 0)             (-1.52649e-11 1.18095e-12 0)             (-1.52849e-11 1.58949e-12 0)             (-1.52712e-11 1.96549e-12 0)             (-1.5229e-11 2.31373e-12 0)             (-1.5161e-11 2.6252e-12 0)             (-1.5073e-11 2.902e-12 0)             (-1.4966e-11 3.14141e-12 0)             (-1.48458e-11 3.3585e-12 0)             (-1.47124e-11 3.55088e-12 0)             (-1.45704e-11 3.70607e-12 0)             (-1.44232e-11 3.83463e-12 0)             (-1.42714e-11 3.94292e-12 0)             (-1.41186e-11 4.01806e-12 0)             (-1.38135e-11 4.10058e-12 0)             (-1.36624e-11 4.11371e-12 0)             (-1.35126e-11 4.1086e-12 0)             (-1.33665e-11 4.08922e-12 0)             (-1.32237e-11 4.04915e-12 0)             (-1.29471e-11 3.94679e-12 0)             (-1.28161e-11 3.8683e-12 0)             (-1.26887e-11 3.79652e-12 0)             (-1.2567e-11 3.70777e-12 0)             (-1.23347e-11 3.51695e-12 0)             (-1.22278e-11 3.41205e-12 0)             (-1.20426e-11 3.19186e-12 0)             (-1.19645e-11 3.07148e-12 0)             (-1.1896e-11 2.95058e-12 0)             (-1.17845e-11 2.70635e-12 0)             (-1.17088e-11 2.43524e-12 0)             (-1.16849e-11 2.28802e-12 0)             (-1.16602e-11 2.00666e-12 0)             (-1.1661e-11 1.85565e-12 0)             (-1.16836e-11 1.55661e-12 0)             (-1.17387e-11 1.23396e-12 0)             (-1.18228e-11 9.33409e-13 0)             (-1.1935e-11 6.21049e-13 0)
          0.7             (-4.69991e-12 6.36683e-13 0)             (-4.16935e-12 1.08426e-12 0)             (-4.16935e-12 1.08426e-12 0)             (-3.99053e-12 6.27253e-13 0)             (-3.99053e-12 6.27253e-13 0)             (-3.85989e-12 -2.95578e-13 0)             (-3.93323e-12 -1.63873e-12 0)             (-3.93323e-12 -1.63873e-12 0)             (-4.16255e-12 -3.00252e-12 0)             (-4.52907e-12 -4.29077e-12 0)             (-4.52907e-12 -4.29077e-12 0)             (-5.0035e-12 -5.39239e-12 0)             (-5.0035e-12 -5.39239e-12 0)             (-5.55045e-12 -6.27096e-12 0)             (-6.13839e-12 -6.95602e-12 0)             (-6.13839e-12 -6.95602e-12 0)             (-6.74456e-12 -7.48461e-12 0)             (-7.34443e-12 -7.87947e-12 0)             (-7.92302e-12 -8.15136e-12 0)             (-7.92302e-12 -8.15136e-12 0)             (-8.46351e-12 -8.3432e-12 0)             (-8.95148e-12 -8.45224e-12 0)             (-8.95148e-12 -8.45224e-12 0)             (-9.38705e-12 -8.41911e-12 0)             (-9.77567e-12 -8.24158e-12 0)             (-1.0115e-11 -7.98297e-12 0)             (-1.0115e-11 -7.98297e-12 0)             (-1.04053e-11 -7.70564e-12 0)             (-1.06437e-11 -7.42708e-12 0)             (-1.08333e-11 -7.14777e-12 0)             (-1.09742e-11 -6.88178e-12 0)             (-1.09742e-11 -6.88178e-12 0)             (-1.10704e-11 -6.61287e-12 0)             (-1.11239e-11 -6.34161e-12 0)             (-1.11384e-11 -6.08551e-12 0)             (-1.11172e-11 -5.83008e-12 0)             (-1.10653e-11 -5.56749e-12 0)             (-1.10653e-11 -5.56749e-12 0)             (-1.09868e-11 -5.28211e-12 0)             (-1.08819e-11 -4.98256e-12 0)             (-1.07536e-11 -4.66506e-12 0)             (-1.06049e-11 -4.3248e-12 0)             (-1.04388e-11 -3.99725e-12 0)             (-1.02572e-11 -3.66745e-12 0)             (-1.00631e-11 -3.32963e-12 0)             (-9.86142e-12 -3.00139e-12 0)             (-9.65241e-12 -2.6863e-12 0)             (-9.44123e-12 -2.37675e-12 0)             (-9.22826e-12 -2.07937e-12 0)             (-9.0161e-12 -1.79725e-12 0)             (-8.80427e-12 -1.53752e-12 0)             (-8.5941e-12 -1.31449e-12 0)             (-8.38471e-12 -1.12013e-12 0)             (-7.97619e-12 -8.56908e-13 0)             (-7.78077e-12 -7.57197e-13 0)             (-7.59258e-12 -6.5583e-13 0)             (-7.40998e-12 -5.67182e-13 0)             (-7.23514e-12 -4.83951e-13 0)             (-6.90279e-12 -3.33463e-13 0)             (-6.74724e-12 -2.72147e-13 0)             (-6.59774e-12 -2.12378e-13 0)             (-6.45564e-12 -1.60928e-13 0)             (-6.18788e-12 -7.14713e-14 0)             (-6.0662e-12 -2.91038e-14 0)             (-5.86114e-12 4.82914e-14 0)             (-5.77738e-12 8.08277e-14 0)             (-5.70637e-12 1.16051e-13 0)             (-5.59633e-12 1.57129e-13 0)             (-5.53369e-12 1.99881e-13 0)             (-5.51772e-12 2.09953e-13 0)             (-5.51783e-12 2.2624e-13 0)             (-5.53278e-12 2.28549e-13 0)             (-5.59136e-12 2.29698e-13 0)             (-5.68744e-12 2.11229e-13 0)             (-5.81875e-12 1.80048e-13 0)             (-5.9817e-12 1.70954e-13 0)
          0.8             (1.19178e-11 -1.24208e-12 0)             (1.24507e-11 -1.99021e-12 0)             (1.24507e-11 -1.99021e-12 0)             (1.26494e-11 -8.01854e-13 0)             (1.26494e-11 -8.01854e-13 0)             (1.28391e-11 4.83698e-13 0)             (1.27785e-11 1.6639e-12 0)             (1.27785e-11 1.6639e-12 0)             (1.25098e-11 2.75411e-12 0)             (1.20392e-11 3.66547e-12 0)             (1.20392e-11 3.66547e-12 0)             (1.13963e-11 4.36655e-12 0)             (1.13963e-11 4.36655e-12 0)             (1.06172e-11 4.84243e-12 0)             (9.73329e-12 5.12494e-12 0)             (9.73329e-12 5.12494e-12 0)             (8.77797e-12 5.26032e-12 0)             (7.78664e-12 5.28115e-12 0)             (6.78628e-12 5.23372e-12 0)             (6.78628e-12 5.23372e-12 0)             (5.80507e-12 5.13472e-12 0)             (4.86307e-12 4.97293e-12 0)             (4.86307e-12 4.97293e-12 0)             (3.97212e-12 4.78365e-12 0)             (3.13777e-12 4.59602e-12 0)             (2.36382e-12 4.40536e-12 0)             (2.36382e-12 4.40536e-12 0)             (1.65088e-12 4.19171e-12 0)             (9.99381e-13 3.96633e-12 0)             (4.03571e-13 3.73739e-12 0)             (-1.43804e-13 3.50186e-12 0)             (-1.43804e-13 3.50186e-12 0)             (-6.44767e-13 3.26913e-12 0)             (-1.10082e-12 3.04663e-12 0)             (-1.51416e-12 2.8248e-12 0)             (-1.88725e-12 2.60046e-12 0)             (-2.22319e-12 2.38406e-12 0)             (-2.22319e-12 2.38406e-12 0)             (-2.52595e-12 2.16402e-12 0)             (-2.79822e-12 1.94865e-12 0)             (-3.0386e-12 1.77163e-12 0)             (-3.25284e-12 1.62842e-12 0)             (-3.43999e-12 1.50216e-12 0)             (-3.60242e-12 1.41229e-12 0)             (-3.74284e-12 1.35637e-12 0)             (-3.86471e-12 1.33424e-12 0)             (-3.96849e-12 1.38336e-12 0)             (-4.05653e-12 1.49166e-12 0)             (-4.12726e-12 1.61242e-12 0)             (-4.18325e-12 1.71913e-12 0)             (-4.22558e-12 1.80111e-12 0)             (-4.25474e-12 1.84878e-12 0)             (-4.27339e-12 1.8777e-12 0)             (-4.28158e-12 1.90557e-12 0)             (-4.27379e-12 1.89979e-12 0)             (-4.25956e-12 1.8827e-12 0)             (-4.24003e-12 1.86878e-12 0)             (-4.21522e-12 1.84004e-12 0)             (-4.15416e-12 1.75901e-12 0)             (-4.11986e-12 1.72652e-12 0)             (-4.08196e-12 1.69005e-12 0)             (-4.04336e-12 1.65181e-12 0)             (-3.94904e-12 1.57092e-12 0)             (-3.90059e-12 1.53742e-12 0)             (-3.82327e-12 1.47615e-12 0)             (-3.79622e-12 1.43846e-12 0)             (-3.77766e-12 1.40441e-12 0)             (-3.76323e-12 1.3337e-12 0)             (-3.7835e-12 1.24626e-12 0)             (-3.80737e-12 1.20794e-12 0)             (-3.88341e-12 1.09057e-12 0)             (-3.93447e-12 1.031e-12 0)             (-4.06554e-12 8.9389e-13 0)             (-4.23425e-12 7.15142e-13 0)             (-4.4417e-12 5.26437e-13 0)             (-4.68663e-12 3.05049e-13 0)