# Probe 0 (15.31 -0.61 0)
# Probe 1 (15.31 -0.6 0)
# Probe 2 (15.31 -0.59 0)
# Probe 3 (15.31 -0.58 0)
# Probe 4 (15.31 -0.57 0)
# Probe 5 (15.31 -0.56 0)
# Probe 6 (15.31 -0.55 0)
# Probe 7 (15.31 -0.54 0)
# Probe 8 (15.31 -0.53 0)
# Probe 9 (15.31 -0.52 0)
# Probe 10 (15.31 -0.51 0)
# Probe 11 (15.31 -0.5 0)
# Probe 12 (15.31 -0.49 0)
# Probe 13 (15.31 -0.48 0)
# Probe 14 (15.31 -0.47 0)
# Probe 15 (15.31 -0.46 0)
# Probe 16 (15.31 -0.45 0)
# Probe 17 (15.31 -0.44 0)
# Probe 18 (15.31 -0.43 0)
# Probe 19 (15.31 -0.42 0)
# Probe 20 (15.31 -0.41 0)
# Probe 21 (15.31 -0.4 0)
# Probe 22 (15.31 -0.39 0)
# Probe 23 (15.31 -0.38 0)
# Probe 24 (15.31 -0.37 0)
# Probe 25 (15.31 -0.36 0)
# Probe 26 (15.31 -0.35 0)
# Probe 27 (15.31 -0.34 0)
# Probe 28 (15.31 -0.33 0)
# Probe 29 (15.31 -0.32 0)
# Probe 30 (15.31 -0.31 0)
# Probe 31 (15.31 -0.3 0)
# Probe 32 (15.31 -0.29 0)
# Probe 33 (15.31 -0.28 0)
# Probe 34 (15.31 -0.27 0)
# Probe 35 (15.31 -0.26 0)
# Probe 36 (15.31 -0.25 0)
# Probe 37 (15.31 -0.24 0)
# Probe 38 (15.31 -0.23 0)
# Probe 39 (15.31 -0.22 0)
# Probe 40 (15.31 -0.21 0)
# Probe 41 (15.31 -0.2 0)
# Probe 42 (15.31 -0.19 0)
# Probe 43 (15.31 -0.18 0)
# Probe 44 (15.31 -0.17 0)
# Probe 45 (15.31 -0.16 0)
# Probe 46 (15.31 -0.15 0)
# Probe 47 (15.31 -0.14 0)
# Probe 48 (15.31 -0.13 0)
# Probe 49 (15.31 -0.12 0)
# Probe 50 (15.31 -0.11 0)
# Probe 51 (15.31 -0.1 0)
# Probe 52 (15.31 -0.09 0)
# Probe 53 (15.31 -0.08 0)
# Probe 54 (15.31 -0.07 0)
# Probe 55 (15.31 -0.06 0)
# Probe 56 (15.31 -0.05 0)
# Probe 57 (15.31 -0.04 0)
# Probe 58 (15.31 -0.03 0)
# Probe 59 (15.31 -0.02 0)
# Probe 60 (15.31 -0.01 0)
# Probe 61 (15.31 0 0)
# Probe 62 (15.31 0.01 0)
# Probe 63 (15.31 0.02 0)
# Probe 64 (15.31 0.03 0)
# Probe 65 (15.31 0.04 0)
# Probe 66 (15.31 0.05 0)
# Probe 67 (15.31 0.06 0)
# Probe 68 (15.31 0.07 0)
# Probe 69 (15.31 0.08 0)
# Probe 70 (15.31 0.09 0)
# Probe 71 (15.31 0.1 0)
# Probe 72 (15.31 0.11 0)
# Probe 73 (15.31 0.12 0)
# Probe 74 (15.31 0.13 0)
# Probe 75 (15.31 0.14 0)
#       Probe             0             1             2             3             4             5             6             7             8             9            10            11            12            13            14            15            16            17            18            19            20            21            22            23            24            25            26            27            28            29            30            31            32            33            34            35            36            37            38            39            40            41            42            43            44            45            46            47            48            49            50            51            52            53            54            55            56            57            58            59            60            61            62            63            64            65            66            67            68            69            70            71            72            73            74            75
#        Time
          0.1             (-2.75651e-11 -1.30496e-13 0)             (-2.7651e-11 1.61693e-12 0)             (-2.76218e-11 4.03124e-12 0)             (-2.76218e-11 4.03124e-12 0)             (-2.76489e-11 4.55587e-12 0)             (-2.78618e-11 4.40442e-12 0)             (-2.82286e-11 4.23179e-12 0)             (-2.86079e-11 4.3171e-12 0)             (-2.86079e-11 4.3171e-12 0)             (-2.88622e-11 4.63527e-12 0)             (-2.88908e-11 5.11959e-12 0)             (-2.86678e-11 5.75863e-12 0)             (-2.82156e-11 6.53809e-12 0)             (-2.759e-11 7.43677e-12 0)             (-2.759e-11 7.43677e-12 0)             (-2.68508e-11 8.42199e-12 0)             (-2.60543e-11 9.43706e-12 0)             (-2.52462e-11 1.04459e-11 0)             (-2.4455e-11 1.14541e-11 0)             (-2.37053e-11 1.24447e-11 0)             (-2.30016e-11 1.3394e-11 0)             (-2.2354e-11 1.42907e-11 0)             (-2.17609e-11 1.51228e-11 0)             (-2.12139e-11 1.58746e-11 0)             (-2.07152e-11 1.65488e-11 0)             (-2.02555e-11 1.71557e-11 0)             (-1.98306e-11 1.76909e-11 0)             (-1.94376e-11 1.8135e-11 0)             (-1.90662e-11 1.8503e-11 0)             (-1.87172e-11 1.88235e-11 0)             (-1.80488e-11 1.93267e-11 0)             (-1.77223e-11 1.9549e-11 0)             (-1.73982e-11 1.97217e-11 0)             (-1.70756e-11 1.98571e-11 0)             (-1.6754e-11 1.99748e-11 0)             (-1.64362e-11 2.00738e-11 0)             (-1.58038e-11 2.02111e-11 0)             (-1.54869e-11 2.02453e-11 0)             (-1.51669e-11 2.02607e-11 0)             (-1.45154e-11 2.02281e-11 0)             (-1.4184e-11 2.01892e-11 0)             (-1.35049e-11 2.00767e-11 0)             (-1.31596e-11 1.99986e-11 0)             (-1.28116e-11 1.99073e-11 0)             (-1.21031e-11 1.97087e-11 0)             (-1.13853e-11 1.94901e-11 0)             (-1.10241e-11 1.9369e-11 0)             (-1.02976e-11 1.9111e-11 0)             (-9.93256e-12 1.89653e-11 0)             (-9.20349e-12 1.86828e-11 0)             (-8.47723e-12 1.83907e-11 0)             (-7.75802e-12 1.80844e-11 0)             (-7.04939e-12 1.77475e-11 0)             (-6.35669e-12 1.7425e-11 0)             (-5.68531e-12 1.7064e-11 0)             (-5.03514e-12 1.67133e-11 0)             (-4.41151e-12 1.63584e-11 0)             (-3.81811e-12 1.59747e-11 0)             (-3.25258e-12 1.56063e-11 0)             (-2.46358e-12 1.49867e-11 0)             (-1.9741e-12 1.45776e-11 0)             (-1.29885e-12 1.39394e-11 0)             (-6.85595e-13 1.32627e-11 0)             (-3.08645e-13 1.27888e-11 0)             (2.04711e-13 1.20462e-11 0)             (8.09384e-13 1.10598e-11 0)             (1.20205e-12 1.03211e-11 0)             (1.55027e-12 9.57291e-12 0)             (1.94721e-12 8.61472e-12 0)             (2.27383e-12 7.65411e-12 0)             (2.53463e-12 6.69401e-12 0)             (2.78293e-12 5.61714e-12 0)             (2.93067e-12 4.71706e-12 0)             (3.07377e-12 3.43852e-12 0)             (3.13668e-12 2.42928e-12 0)             (3.15826e-12 1.10136e-12 0)
          0.2             (-4.68685e-12 1.3185e-12 0)             (-4.09614e-12 3.8659e-12 0)             (-3.4969e-12 4.8516e-12 0)             (-3.4969e-12 4.8516e-12 0)             (-3.18867e-12 4.35276e-12 0)             (-3.22482e-12 3.8722e-12 0)             (-3.45772e-12 3.49955e-12 0)             (-3.6737e-12 3.28502e-12 0)             (-3.6737e-12 3.28502e-12 0)             (-3.73506e-12 3.20885e-12 0)             (-3.58307e-12 3.27694e-12 0)             (-3.22956e-12 3.56734e-12 0)             (-2.72926e-12 4.08864e-12 0)             (-2.15039e-12 4.80516e-12 0)             (-2.15039e-12 4.80516e-12 0)             (-1.56405e-12 5.67998e-12 0)             (-1.01107e-12 6.61441e-12 0)             (-5.22774e-13 7.53656e-12 0)             (-1.14178e-13 8.4111e-12 0)             (2.0908e-13 9.20207e-12 0)             (4.50249e-13 9.88703e-12 0)             (6.19998e-13 1.04439e-11 0)             (7.28602e-13 1.0854e-11 0)             (7.80623e-13 1.1126e-11 0)             (7.85648e-13 1.12991e-11 0)             (7.51451e-13 1.13654e-11 0)             (6.87395e-13 1.13492e-11 0)             (6.00684e-13 1.12661e-11 0)             (5.01285e-13 1.11169e-11 0)             (3.88733e-13 1.09332e-11 0)             (1.50441e-13 1.051e-11 0)             (2.67712e-14 1.03012e-11 0)             (-9.51828e-14 1.00879e-11 0)             (-2.1621e-13 9.88461e-12 0)             (-3.3172e-13 9.70347e-12 0)             (-4.44214e-13 9.52675e-12 0)             (-6.47297e-13 9.22303e-12 0)             (-7.35621e-13 9.0964e-12 0)             (-8.14951e-13 8.98735e-12 0)             (-9.41686e-13 8.8299e-12 0)             (-9.88209e-13 8.75961e-12 0)             (-1.0513e-12 8.67338e-12 0)             (-1.0715e-12 8.63626e-12 0)             (-1.08249e-12 8.6025e-12 0)             (-1.08637e-12 8.57745e-12 0)             (-1.07143e-12 8.56556e-12 0)             (-1.05495e-12 8.55664e-12 0)             (-1.01089e-12 8.58401e-12 0)             (-9.81168e-13 8.59881e-12 0)             (-9.106e-13 8.64061e-12 0)             (-8.31407e-13 8.69395e-12 0)             (-7.41845e-13 8.72433e-12 0)             (-6.47607e-13 8.76551e-12 0)             (-5.50531e-13 8.78627e-12 0)             (-4.52941e-13 8.79225e-12 0)             (-3.53531e-13 8.78436e-12 0)             (-2.5537e-13 8.73748e-12 0)             (-1.5759e-13 8.67227e-12 0)             (-6.31296e-14 8.60736e-12 0)             (6.97947e-14 8.43546e-12 0)             (1.53264e-13 8.30763e-12 0)             (2.70902e-13 8.07142e-12 0)             (3.78145e-13 7.78811e-12 0)             (4.43042e-13 7.57624e-12 0)             (5.32525e-13 7.21593e-12 0)             (6.36853e-13 6.70583e-12 0)             (7.06542e-13 6.27307e-12 0)             (7.67477e-13 5.88921e-12 0)             (8.38351e-13 5.28132e-12 0)             (8.9794e-13 4.65808e-12 0)             (9.50856e-13 4.07257e-12 0)             (1.00431e-12 3.30146e-12 0)             (1.03731e-12 2.69181e-12 0)             (1.07136e-12 1.87656e-12 0)             (1.08565e-12 1.28984e-12 0)             (1.08975e-12 5.45535e-13 0)
          0.3             (-1.07524e-11 -2.66775e-12 0)             (-1.11558e-11 -4.64089e-12 0)             (-1.1434e-11 -3.45732e-12 0)             (-1.1434e-11 -3.45732e-12 0)             (-1.13029e-11 -2.15346e-12 0)             (-1.07569e-11 -8.03294e-13 0)             (-1.00099e-11 1.61162e-13 0)             (-9.26749e-12 9.48042e-13 0)             (-9.26749e-12 9.48042e-13 0)             (-8.67502e-12 1.57752e-12 0)             (-8.26582e-12 1.99521e-12 0)             (-8.00477e-12 2.16666e-12 0)             (-7.83822e-12 2.12281e-12 0)             (-7.70379e-12 1.91585e-12 0)             (-7.70379e-12 1.91585e-12 0)             (-7.5531e-12 1.60756e-12 0)             (-7.35528e-12 1.26617e-12 0)             (-7.09444e-12 9.45995e-13 0)             (-6.76669e-12 7.20893e-13 0)             (-6.38023e-12 6.04751e-13 0)             (-5.94542e-12 6.0801e-13 0)             (-5.47405e-12 7.35275e-13 0)             (-4.97496e-12 9.49951e-13 0)             (-4.46331e-12 1.24255e-12 0)             (-3.94711e-12 1.58846e-12 0)             (-3.43752e-12 1.9747e-12 0)             (-2.94074e-12 2.384e-12 0)             (-2.46311e-12 2.80641e-12 0)             (-2.01425e-12 3.22095e-12 0)             (-1.59856e-12 3.6085e-12 0)             (-8.7815e-13 4.28765e-12 0)             (-5.74492e-13 4.55922e-12 0)             (-3.09687e-13 4.78399e-12 0)             (-7.89794e-14 4.96804e-12 0)             (1.12762e-13 5.10415e-12 0)             (2.69877e-13 5.19468e-12 0)             (4.80448e-13 5.24645e-12 0)             (5.35304e-13 5.21187e-12 0)             (5.62586e-13 5.14531e-12 0)             (5.34054e-13 4.92126e-12 0)             (4.82543e-13 4.79049e-12 0)             (3.1451e-13 4.47467e-12 0)             (2.00496e-13 4.32335e-12 0)             (6.6202e-14 4.14958e-12 0)             (-2.39204e-13 3.78331e-12 0)             (-5.95001e-13 3.39009e-12 0)             (-7.83962e-13 3.21259e-12 0)             (-1.17934e-12 2.79835e-12 0)             (-1.38176e-12 2.61592e-12 0)             (-1.78539e-12 2.20342e-12 0)             (-2.18227e-12 1.82001e-12 0)             (-2.5594e-12 1.43558e-12 0)             (-2.91165e-12 1.01351e-12 0)             (-3.22984e-12 6.02319e-13 0)             (-3.50585e-12 2.06172e-13 0)             (-3.74576e-12 -1.63016e-13 0)             (-3.94585e-12 -5.20405e-13 0)             (-4.11011e-12 -7.90937e-13 0)             (-4.24366e-12 -1.07499e-12 0)             (-4.39096e-12 -1.3808e-12 0)             (-4.45994e-12 -1.52043e-12 0)             (-4.53238e-12 -1.66924e-12 0)             (-4.57446e-12 -1.7114e-12 0)             (-4.59315e-12 -1.74065e-12 0)             (-4.60891e-12 -1.69708e-12 0)             (-4.61319e-12 -1.63014e-12 0)             (-4.60589e-12 -1.52062e-12 0)             (-4.59483e-12 -1.4429e-12 0)             (-4.57511e-12 -1.26076e-12 0)             (-4.55389e-12 -1.11017e-12 0)             (-4.53366e-12 -9.40926e-13 0)             (-4.51721e-12 -6.61224e-13 0)             (-4.50534e-12 -4.8718e-13 0)             (-4.4956e-12 -2.65466e-13 0)             (-4.49357e-12 -7.0312e-14 0)             (-4.4943e-12 4.05224e-14 0)
          0.4             (3.43942e-12 -9.91002e-14 0)             (4.43414e-12 -1.45558e-13 0)             (5.06825e-12 3.55031e-13 0)             (5.06825e-12 3.55031e-13 0)             (5.04687e-12 1.21861e-12 0)             (4.63065e-12 1.43825e-12 0)             (3.95832e-12 7.41477e-13 0)             (3.15106e-12 -4.56161e-13 0)             (3.15106e-12 -4.56161e-13 0)             (2.25449e-12 -1.79474e-12 0)             (1.32627e-12 -2.94922e-12 0)             (4.21462e-13 -3.83665e-12 0)             (-3.95097e-13 -4.45429e-12 0)             (-1.07852e-12 -4.86132e-12 0)             (-1.07852e-12 -4.86132e-12 0)             (-1.61216e-12 -5.17114e-12 0)             (-2.00248e-12 -5.46515e-12 0)             (-2.27135e-12 -5.76249e-12 0)             (-2.45221e-12 -6.07205e-12 0)             (-2.58069e-12 -6.38352e-12 0)             (-2.68898e-12 -6.69452e-12 0)             (-2.80148e-12 -7.02252e-12 0)             (-2.93894e-12 -7.35461e-12 0)             (-3.11277e-12 -7.69893e-12 0)             (-3.3322e-12 -8.03892e-12 0)             (-3.59164e-12 -8.35464e-12 0)             (-3.89304e-12 -8.65951e-12 0)             (-4.22521e-12 -8.94349e-12 0)             (-4.58061e-12 -9.22121e-12 0)             (-4.95359e-12 -9.47493e-12 0)             (-5.70163e-12 -9.90672e-12 0)             (-6.05956e-12 -1.00773e-11 0)             (-6.39651e-12 -1.02334e-11 0)             (-6.70985e-12 -1.03822e-11 0)             (-6.99212e-12 -1.04896e-11 0)             (-7.2415e-12 -1.05815e-11 0)             (-7.63099e-12 -1.0726e-11 0)             (-7.76555e-12 -1.07609e-11 0)             (-7.86306e-12 -1.07562e-11 0)             (-7.95024e-12 -1.06873e-11 0)             (-7.9421e-12 -1.06218e-11 0)             (-7.83732e-12 -1.0366e-11 0)             (-7.74357e-12 -1.02173e-11 0)             (-7.62559e-12 -1.0052e-11 0)             (-7.32588e-12 -9.65941e-12 0)             (-6.96088e-12 -9.21743e-12 0)             (-6.75791e-12 -8.98152e-12 0)             (-6.32494e-12 -8.47512e-12 0)             (-6.09762e-12 -8.20172e-12 0)             (-5.63384e-12 -7.66081e-12 0)             (-5.16481e-12 -7.10867e-12 0)             (-4.70399e-12 -6.53873e-12 0)             (-4.26042e-12 -5.96521e-12 0)             (-3.83522e-12 -5.41991e-12 0)             (-3.43452e-12 -4.89362e-12 0)             (-3.05364e-12 -4.36493e-12 0)             (-2.69488e-12 -3.88871e-12 0)             (-2.36038e-12 -3.4268e-12 0)             (-2.04941e-12 -2.98083e-12 0)             (-1.62777e-12 -2.38957e-12 0)             (-1.37992e-12 -2.03276e-12 0)             (-1.04988e-12 -1.53697e-12 0)             (-7.67146e-13 -1.12936e-12 0)             (-6.0608e-13 -9.03201e-13 0)             (-4.03186e-13 -5.90212e-13 0)             (-1.94223e-13 -2.48408e-13 0)             (-7.86145e-14 -6.90777e-14 0)             (1.14733e-14 7.06888e-14 0)             (9.64031e-14 2.34804e-13 0)             (1.50875e-13 3.19938e-13 0)             (1.82201e-13 4.12121e-13 0)             (1.90279e-13 4.20985e-13 0)             (1.82302e-13 4.24893e-13 0)             (1.51134e-13 4.02507e-13 0)             (1.14284e-13 3.61084e-13 0)             (4.27836e-14 3.07337e-13 0)
          0.5             (3.11798e-12 -2.19953e-12 0)             (2.64364e-12 -3.53315e-12 0)             (2.78454e-12 -1.56561e-12 0)             (2.78454e-12 -1.56561e-12 0)             (3.2826e-12 2.44465e-13 0)             (3.96508e-12 1.16353e-12 0)             (4.53778e-12 1.39207e-12 0)             (4.87003e-12 1.27662e-12 0)             (4.87003e-12 1.27662e-12 0)             (4.94942e-12 8.82384e-13 0)             (4.84139e-12 1.96961e-13 0)             (4.61655e-12 -7.91301e-13 0)             (4.3357e-12 -1.94967e-12 0)             (4.0386e-12 -3.14129e-12 0)             (4.0386e-12 -3.14129e-12 0)             (3.72771e-12 -4.30922e-12 0)             (3.4072e-12 -5.38949e-12 0)             (3.07199e-12 -6.30728e-12 0)             (2.71538e-12 -7.03126e-12 0)             (2.32839e-12 -7.58356e-12 0)             (1.919e-12 -7.97695e-12 0)             (1.48262e-12 -8.23727e-12 0)             (1.0274e-12 -8.41003e-12 0)             (5.61001e-13 -8.53362e-12 0)             (9.04797e-14 -8.62594e-12 0)             (-3.7777e-13 -8.72711e-12 0)             (-8.38516e-13 -8.84638e-12 0)             (-1.29046e-12 -8.99475e-12 0)             (-1.7266e-12 -9.19068e-12 0)             (-2.1484e-12 -9.41605e-12 0)             (-2.9363e-12 -9.98604e-12 0)             (-3.30001e-12 -1.03006e-11 0)             (-3.64375e-12 -1.06328e-11 0)             (-3.9635e-12 -1.0958e-11 0)             (-4.2616e-12 -1.12734e-11 0)             (-4.53415e-12 -1.16025e-11 0)             (-4.99851e-12 -1.21834e-11 0)             (-5.18946e-12 -1.24646e-11 0)             (-5.34993e-12 -1.27064e-11 0)             (-5.58843e-12 -1.31279e-11 0)             (-5.66318e-12 -1.32932e-11 0)             (-5.73033e-12 -1.35312e-11 0)             (-5.72442e-12 -1.3608e-11 0)             (-5.69005e-12 -1.36554e-11 0)             (-5.54623e-12 -1.36694e-11 0)             (-5.31146e-12 -1.35628e-11 0)             (-5.16174e-12 -1.34775e-11 0)             (-4.7988e-12 -1.32097e-11 0)             (-4.58909e-12 -1.30608e-11 0)             (-4.11636e-12 -1.27006e-11 0)             (-3.57824e-12 -1.22679e-11 0)             (-2.98622e-12 -1.18196e-11 0)             (-2.34459e-12 -1.13082e-11 0)             (-1.66708e-12 -1.08082e-11 0)             (-9.59395e-13 -1.03291e-11 0)             (-2.33808e-13 -9.84644e-12 0)             (5.05117e-13 -9.3531e-12 0)             (1.24587e-12 -8.88766e-12 0)             (1.98699e-12 -8.41323e-12 0)             (3.0849e-12 -7.6897e-12 0)             (3.80082e-12 -7.21137e-12 0)             (4.83977e-12 -6.48963e-12 0)             (5.82616e-12 -5.77635e-12 0)             (6.44381e-12 -5.32923e-12 0)             (7.30699e-12 -4.67583e-12 0)             (8.34111e-12 -3.88673e-12 0)             (9.02874e-12 -3.3379e-12 0)             (9.64417e-12 -2.84736e-12 0)             (1.03508e-11 -2.2864e-12 0)             (1.09429e-11 -1.76988e-12 0)             (1.14313e-11 -1.36997e-12 0)             (1.19045e-11 -9.71354e-13 0)             (1.21887e-11 -6.73292e-13 0)             (1.24785e-11 -3.84479e-13 0)             (1.26186e-11 -1.8881e-13 0)             (1.26854e-11 -5.40549e-14 0)
          0.6             (-1.70237e-12 -1.88756e-12 0)             (-2.04759e-12 -3.22545e-12 0)             (-1.77514e-12 -1.6191e-12 0)             (-1.77514e-12 -1.6191e-12 0)             (-1.291e-12 5.39961e-14 0)             (-7.09688e-13 8.38751e-13 0)             (-2.62904e-13 1.05419e-12 0)             (-3.44362e-14 1.04982e-12 0)             (-3.44362e-14 1.04982e-12 0)             (1.3218e-14 8.7233e-13 0)             (-4.58697e-14 4.58715e-13 0)             (-1.6244e-13 -2.86432e-13 0)             (-2.96376e-13 -1.20695e-12 0)             (-4.34664e-13 -2.15797e-12 0)             (-4.34664e-13 -2.15797e-12 0)             (-5.91504e-13 -3.10921e-12 0)             (-7.76453e-13 -3.975e-12 0)             (-1.00132e-12 -4.69192e-12 0)             (-1.26733e-12 -5.25269e-12 0)             (-1.5739e-12 -5.65591e-12 0)             (-1.91862e-12 -5.91657e-12 0)             (-2.29733e-12 -6.05799e-12 0)             (-2.69571e-12 -6.11453e-12 0)             (-3.10189e-12 -6.12862e-12 0)             (-3.51207e-12 -6.12367e-12 0)             (-3.91088e-12 -6.14037e-12 0)             (-4.29188e-12 -6.17794e-12 0)             (-4.65438e-12 -6.24386e-12 0)             (-4.99084e-12 -6.35523e-12 0)             (-5.30846e-12 -6.51991e-12 0)             (-5.87025e-12 -6.9756e-12 0)             (-6.11626e-12 -7.24514e-12 0)             (-6.33851e-12 -7.53226e-12 0)             (-6.53865e-12 -7.84199e-12 0)             (-6.71811e-12 -8.14472e-12 0)             (-6.87503e-12 -8.4307e-12 0)             (-7.12361e-12 -8.96005e-12 0)             (-7.21535e-12 -9.18183e-12 0)             (-7.28021e-12 -9.38611e-12 0)             (-7.33805e-12 -9.67802e-12 0)             (-7.32421e-12 -9.78648e-12 0)             (-7.2285e-12 -9.9241e-12 0)             (-7.1477e-12 -9.951e-12 0)             (-7.04201e-12 -9.94005e-12 0)             (-6.77225e-12 -9.88237e-12 0)             (-6.42469e-12 -9.70944e-12 0)             (-6.22452e-12 -9.60209e-12 0)             (-5.7675e-12 -9.34286e-12 0)             (-5.51459e-12 -9.19084e-12 0)             (-4.95697e-12 -8.83463e-12 0)             (-4.34447e-12 -8.47001e-12 0)             (-3.68702e-12 -8.06181e-12 0)             (-2.9967e-12 -7.62839e-12 0)             (-2.282e-12 -7.20985e-12 0)             (-1.55486e-12 -6.79678e-12 0)             (-8.20622e-13 -6.38622e-12 0)             (-8.74137e-14 -5.98873e-12 0)             (6.45671e-13 -5.59521e-12 0)             (1.36366e-12 -5.19904e-12 0)             (2.41693e-12 -4.6077e-12 0)             (3.0943e-12 -4.24756e-12 0)             (4.07887e-12 -3.68596e-12 0)             (5.01411e-12 -3.18162e-12 0)             (5.59826e-12 -2.86978e-12 0)             (6.41782e-12 -2.43123e-12 0)             (7.39344e-12 -1.89814e-12 0)             (8.0398e-12 -1.52804e-12 0)             (8.61604e-12 -1.23741e-12 0)             (9.28099e-12 -8.81872e-13 0)             (9.8314e-12 -5.67564e-13 0)             (1.02849e-11 -3.32871e-13 0)             (1.07168e-11 -1.43154e-13 0)             (1.0971e-11 -2.67357e-14 0)             (1.1224e-11 1.25409e-13 0)             (1.13336e-11 1.23074e-13 0)             (1.13609e-11 1.0948e-13 0)
          0.7             (-4.86126e-12 1.19869e-13 0)             (-6.20702e-12 -1.33383e-12 0)             (-6.4595e-12 -3.63736e-12 0)             (-6.4595e-12 -3.63736e-12 0)             (-6.11079e-12 -4.47856e-12 0)             (-5.23337e-12 -4.34109e-12 0)             (-4.20157e-12 -3.70146e-12 0)             (-3.14759e-12 -3.15809e-12 0)             (-3.14759e-12 -3.15809e-12 0)             (-2.14094e-12 -3.06417e-12 0)             (-1.24706e-12 -3.3669e-12 0)             (-5.33435e-13 -3.96671e-12 0)             (-3.9952e-14 -4.61738e-12 0)             (2.15284e-13 -5.141e-12 0)             (2.15284e-13 -5.141e-12 0)             (2.51002e-13 -5.52436e-12 0)             (1.06922e-13 -5.77239e-12 0)             (-1.6069e-13 -5.92117e-12 0)             (-4.94655e-13 -6.02346e-12 0)             (-8.41658e-13 -6.12865e-12 0)             (-1.1606e-12 -6.28695e-12 0)             (-1.42727e-12 -6.50298e-12 0)             (-1.63133e-12 -6.75404e-12 0)             (-1.76768e-12 -7.04736e-12 0)             (-1.84318e-12 -7.38832e-12 0)             (-1.86043e-12 -7.75863e-12 0)             (-1.82723e-12 -8.13794e-12 0)             (-1.76208e-12 -8.5073e-12 0)             (-1.67105e-12 -8.87351e-12 0)             (-1.56976e-12 -9.22397e-12 0)             (-1.36815e-12 -9.87097e-12 0)             (-1.2789e-12 -1.01693e-11 0)             (-1.20701e-12 -1.04607e-11 0)             (-1.15053e-12 -1.07437e-11 0)             (-1.11442e-12 -1.10194e-11 0)             (-1.09518e-12 -1.1276e-11 0)             (-1.11005e-12 -1.17437e-11 0)             (-1.13954e-12 -1.19559e-11 0)             (-1.18089e-12 -1.2164e-11 0)             (-1.29212e-12 -1.25321e-11 0)             (-1.35728e-12 -1.27113e-11 0)             (-1.48708e-12 -1.30037e-11 0)             (-1.5494e-12 -1.31419e-11 0)             (-1.60315e-12 -1.32557e-11 0)             (-1.68786e-12 -1.34437e-11 0)             (-1.72633e-12 -1.3573e-11 0)             (-1.72732e-12 -1.36209e-11 0)             (-1.67751e-12 -1.36636e-11 0)             (-1.62927e-12 -1.36695e-11 0)             (-1.48009e-12 -1.36044e-11 0)             (-1.26224e-12 -1.3502e-11 0)             (-9.81091e-13 -1.33514e-11 0)             (-6.34927e-13 -1.31419e-11 0)             (-2.331e-13 -1.29276e-11 0)             (2.21614e-13 -1.2675e-11 0)             (7.19227e-13 -1.24208e-11 0)             (1.25141e-12 -1.21706e-11 0)             (1.80829e-12 -1.1926e-11 0)             (2.38051e-12 -1.1677e-11 0)             (3.24827e-12 -1.12474e-11 0)             (3.83106e-12 -1.0963e-11 0)             (4.71129e-12 -1.04753e-11 0)             (5.59922e-12 -9.97574e-12 0)             (6.16691e-12 -9.59587e-12 0)             (6.97716e-12 -9.00788e-12 0)             (7.97424e-12 -8.2103e-12 0)             (8.64849e-12 -7.56247e-12 0)             (9.25998e-12 -6.93677e-12 0)             (9.97125e-12 -6.10395e-12 0)             (1.0569e-11 -5.28366e-12 0)             (1.10601e-11 -4.54915e-12 0)             (1.15295e-11 -3.65506e-12 0)             (1.1799e-11 -2.92666e-12 0)             (1.20504e-11 -1.96828e-12 0)             (1.21367e-11 -1.28453e-12 0)             (1.20954e-11 -4.14514e-13 0)
          0.8             (-3.18776e-14 1.8351e-12 0)             (2.03815e-13 9.4303e-13 0)             (-1.80136e-13 -3.2623e-12 0)             (-1.80136e-13 -3.2623e-12 0)             (-1.06779e-12 -5.92976e-12 0)             (-1.67106e-12 -7.73098e-12 0)             (-1.94417e-12 -8.57282e-12 0)             (-1.92338e-12 -8.81801e-12 0)             (-1.92338e-12 -8.81801e-12 0)             (-1.74585e-12 -8.6522e-12 0)             (-1.53297e-12 -8.21409e-12 0)             (-1.357e-12 -7.67438e-12 0)             (-1.20236e-12 -7.11786e-12 0)             (-1.02838e-12 -6.661e-12 0)             (-1.02838e-12 -6.661e-12 0)             (-7.9655e-13 -6.44446e-12 0)             (-4.75528e-13 -6.52065e-12 0)             (-6.20554e-14 -6.86348e-12 0)             (4.37062e-13 -7.3966e-12 0)             (1.00033e-12 -8.04373e-12 0)             (1.60531e-12 -8.7321e-12 0)             (2.22139e-12 -9.42533e-12 0)             (2.82254e-12 -1.00872e-11 0)             (3.39453e-12 -1.06675e-11 0)             (3.92293e-12 -1.11487e-11 0)             (4.39951e-12 -1.15216e-11 0)             (4.82596e-12 -1.17903e-11 0)             (5.20022e-12 -1.19627e-11 0)             (5.53366e-12 -1.20615e-11 0)             (5.82194e-12 -1.2105e-11 0)             (6.31149e-12 -1.20732e-11 0)             (6.51761e-12 -1.20391e-11 0)             (6.70315e-12 -1.20085e-11 0)             (6.86853e-12 -1.19837e-11 0)             (7.01923e-12 -1.19791e-11 0)             (7.15682e-12 -1.19874e-11 0)             (7.40488e-12 -1.20421e-11 0)             (7.51758e-12 -1.2099e-11 0)             (7.62681e-12 -1.21523e-11 0)             (7.82787e-12 -1.2346e-11 0)             (7.92449e-12 -1.24342e-11 0)             (8.10498e-12 -1.26526e-11 0)             (8.1869e-12 -1.27752e-11 0)             (8.26699e-12 -1.28976e-11 0)             (8.41042e-12 -1.315e-11 0)             (8.53123e-12 -1.34053e-11 0)             (8.58316e-12 -1.35122e-11 0)             (8.67502e-12 -1.37409e-11 0)             (8.71373e-12 -1.38255e-11 0)             (8.77961e-12 -1.39949e-11 0)             (8.83787e-12 -1.41288e-11 0)             (8.88734e-12 -1.42166e-11 0)             (8.9371e-12 -1.42584e-11 0)             (8.98682e-12 -1.42745e-11 0)             (9.04642e-12 -1.4249e-11 0)             (9.11369e-12 -1.41831e-11 0)             (9.19141e-12 -1.40731e-11 0)             (9.28556e-12 -1.39227e-11 0)             (9.3881e-12 -1.37262e-11 0)             (9.56763e-12 -1.33681e-11 0)             (9.70293e-12 -1.31027e-11 0)             (9.94795e-12 -1.26246e-11 0)             (1.02461e-11 -1.20984e-11 0)             (1.04432e-11 -1.16861e-11 0)             (1.07286e-11 -1.10835e-11 0)             (1.10839e-11 -1.01945e-11 0)             (1.13197e-11 -9.48901e-12 0)             (1.15271e-11 -8.80785e-12 0)             (1.17572e-11 -7.91414e-12 0)             (1.19318e-11 -6.97405e-12 0)             (1.20514e-11 -6.05129e-12 0)             (1.21237e-11 -4.97783e-12 0)             (1.21231e-11 -4.13611e-12 0)             (1.2034e-11 -3.04015e-12 0)             (1.18846e-11 -2.09666e-12 0)             (1.15716e-11 -9.9835e-13 0)