# Probe 0 (15.31 -0.61 0)
# Probe 1 (15.31 -0.6 0)
# Probe 2 (15.31 -0.59 0)
# Probe 3 (15.31 -0.58 0)
# Probe 4 (15.31 -0.57 0)
# Probe 5 (15.31 -0.56 0)
# Probe 6 (15.31 -0.55 0)
# Probe 7 (15.31 -0.54 0)
# Probe 8 (15.31 -0.53 0)
# Probe 9 (15.31 -0.52 0)
# Probe 10 (15.31 -0.51 0)
# Probe 11 (15.31 -0.5 0)
# Probe 12 (15.31 -0.49 0)
# Probe 13 (15.31 -0.48 0)
# Probe 14 (15.31 -0.47 0)
# Probe 15 (15.31 -0.46 0)
# Probe 16 (15.31 -0.45 0)
# Probe 17 (15.31 -0.44 0)
# Probe 18 (15.31 -0.43 0)
# Probe 19 (15.31 -0.42 0)
# Probe 20 (15.31 -0.41 0)
# Probe 21 (15.31 -0.4 0)
# Probe 22 (15.31 -0.39 0)
# Probe 23 (15.31 -0.38 0)
# Probe 24 (15.31 -0.37 0)
# Probe 25 (15.31 -0.36 0)
# Probe 26 (15.31 -0.35 0)
# Probe 27 (15.31 -0.34 0)
# Probe 28 (15.31 -0.33 0)
# Probe 29 (15.31 -0.32 0)
# Probe 30 (15.31 -0.31 0)
# Probe 31 (15.31 -0.3 0)
# Probe 32 (15.31 -0.29 0)
# Probe 33 (15.31 -0.28 0)
# Probe 34 (15.31 -0.27 0)
# Probe 35 (15.31 -0.26 0)
# Probe 36 (15.31 -0.25 0)
# Probe 37 (15.31 -0.24 0)
# Probe 38 (15.31 -0.23 0)
# Probe 39 (15.31 -0.22 0)
# Probe 40 (15.31 -0.21 0)
# Probe 41 (15.31 -0.2 0)
# Probe 42 (15.31 -0.19 0)
# Probe 43 (15.31 -0.18 0)
# Probe 44 (15.31 -0.17 0)
# Probe 45 (15.31 -0.16 0)
# Probe 46 (15.31 -0.15 0)
# Probe 47 (15.31 -0.14 0)
# Probe 48 (15.31 -0.13 0)
# Probe 49 (15.31 -0.12 0)
# Probe 50 (15.31 -0.11 0)
# Probe 51 (15.31 -0.1 0)
# Probe 52 (15.31 -0.09 0)
# Probe 53 (15.31 -0.08 0)
# Probe 54 (15.31 -0.07 0)
# Probe 55 (15.31 -0.06 0)
# Probe 56 (15.31 -0.05 0)
# Probe 57 (15.31 -0.04 0)
# Probe 58 (15.31 -0.03 0)
# Probe 59 (15.31 -0.02 0)
# Probe 60 (15.31 -0.01 0)
# Probe 61 (15.31 0 0)
# Probe 62 (15.31 0.01 0)
# Probe 63 (15.31 0.02 0)
# Probe 64 (15.31 0.03 0)
# Probe 65 (15.31 0.04 0)
# Probe 66 (15.31 0.05 0)
# Probe 67 (15.31 0.06 0)
# Probe 68 (15.31 0.07 0)
# Probe 69 (15.31 0.08 0)
# Probe 70 (15.31 0.09 0)
# Probe 71 (15.31 0.1 0)
# Probe 72 (15.31 0.11 0)
# Probe 73 (15.31 0.12 0)
# Probe 74 (15.31 0.13 0)
# Probe 75 (15.31 0.14 0)
#       Probe             0             1             2             3             4             5             6             7             8             9            10            11            12            13            14            15            16            17            18            19            20            21            22            23            24            25            26            27            28            29            30            31            32            33            34            35            36            37            38            39            40            41            42            43            44            45            46            47            48            49            50            51            52            53            54            55            56            57            58            59            60            61            62            63            64            65            66            67            68            69            70            71            72            73            74            75
#        Time
          0.1             (-2.3545e-11 -7.95343e-13 0)             (-2.35531e-11 4.04527e-13 0)             (-2.34712e-11 7.28442e-13 0)             (-2.33234e-11 7.22562e-13 0)             (-2.31188e-11 6.14918e-13 0)             (-2.25377e-11 7.81726e-13 0)             (-2.21348e-11 1.14858e-12 0)             (-2.16419e-11 1.71959e-12 0)             (-2.10459e-11 2.44035e-12 0)             (-1.95139e-11 4.18726e-12 0)             (-1.85859e-11 5.09883e-12 0)             (-1.75669e-11 5.94941e-12 0)             (-1.53183e-11 7.38086e-12 0)             (-1.41264e-11 7.95822e-12 0)             (-1.29233e-11 8.50653e-12 0)             (-1.05577e-11 9.40305e-12 0)             (-9.42939e-12 9.73566e-12 0)             (-8.35377e-12 1.00034e-11 0)             (-6.39811e-12 1.04458e-11 0)             (-5.52815e-12 1.0587e-11 0)             (-4.02548e-12 1.07072e-11 0)             (-3.39219e-12 1.07047e-11 0)             (-2.83703e-12 1.06554e-11 0)             (-1.94341e-12 1.05049e-11 0)             (-1.59309e-12 1.03903e-11 0)             (-1.04965e-12 1.01066e-11 0)             (-8.47861e-13 9.94119e-12 0)             (-5.45536e-13 9.52307e-12 0)             (-3.3855e-13 9.03873e-12 0)             (-2.55913e-13 8.73947e-12 0)             (-1.10666e-13 8.08528e-12 0)             (-3.79219e-14 7.71229e-12 0)             (1.22323e-13 6.88443e-12 0)             (3.28204e-13 6.01063e-12 0)             (4.53258e-13 5.55335e-12 0)             (7.51424e-13 4.63111e-12 0)             (1.12522e-12 3.76198e-12 0)             (1.56955e-12 2.93835e-12 0)             (1.81653e-12 2.57655e-12 0)             (2.34382e-12 1.95107e-12 0)             (2.9079e-12 1.4655e-12 0)             (3.50378e-12 1.0903e-12 0)             (4.13425e-12 7.74958e-13 0)             (4.7917e-12 5.47361e-13 0)             (5.4617e-12 3.05559e-13 0)             (6.12829e-12 1.25075e-13 0)             (6.78023e-12 -2.05049e-14 0)             (7.40749e-12 -8.40853e-14 0)             (8.00027e-12 -8.582e-14 0)             (8.5575e-12 -4.62621e-14 0)             (9.07151e-12 4.22901e-14 0)             (9.53699e-12 2.09164e-13 0)             (9.95646e-12 4.08279e-13 0)             (1.04859e-11 7.66156e-13 0)             (1.07749e-11 1.02647e-12 0)             (1.10065e-11 1.27326e-12 0)             (1.12563e-11 1.63198e-12 0)             (1.13541e-11 1.86313e-12 0)             (1.14031e-11 2.18301e-12 0)             (1.13745e-11 2.36179e-12 0)             (1.12504e-11 2.60372e-12 0)             (1.11218e-11 2.74139e-12 0)             (1.0871e-11 2.85845e-12 0)             (1.0561e-11 2.94578e-12 0)             (1.02156e-11 2.97571e-12 0)             (9.84216e-12 2.92552e-12 0)             (9.45752e-12 2.82415e-12 0)             (9.06967e-12 2.69018e-12 0)             (8.68861e-12 2.49826e-12 0)             (8.3199e-12 2.24847e-12 0)             (7.97372e-12 2.01893e-12 0)             (7.65463e-12 1.72763e-12 0)             (7.27566e-12 1.37466e-12 0)             (7.03922e-12 1.12643e-12 0)             (6.78799e-12 7.57307e-13 0)             (6.61622e-12 4.27252e-13 0)
          0.2             (1.88341e-12 1.62256e-12 0)             (1.89492e-12 5.06701e-13 0)             (1.94703e-12 -7.50992e-13 0)             (2.08765e-12 -2.08504e-12 0)             (2.32159e-12 -3.38872e-12 0)             (2.94493e-12 -5.27913e-12 0)             (3.25762e-12 -5.76964e-12 0)             (3.51933e-12 -5.98588e-12 0)             (3.70511e-12 -6.00204e-12 0)             (3.80392e-12 -5.80787e-12 0)             (3.7141e-12 -5.75037e-12 0)             (3.53839e-12 -5.82477e-12 0)             (2.97167e-12 -6.43393e-12 0)             (2.60709e-12 -6.97425e-12 0)             (2.20857e-12 -7.64007e-12 0)             (1.3267e-12 -9.26418e-12 0)             (8.56608e-13 -1.01827e-11 0)             (3.70854e-13 -1.11153e-11 0)             (-6.50331e-13 -1.29194e-11 0)             (-1.18222e-12 -1.37554e-11 0)             (-2.27965e-12 -1.51442e-11 0)             (-2.8369e-12 -1.56907e-11 0)             (-3.39412e-12 -1.60984e-11 0)             (-4.49143e-12 -1.64992e-11 0)             (-5.02414e-12 -1.64659e-11 0)             (-6.03192e-12 -1.60185e-11 0)             (-6.49756e-12 -1.56132e-11 0)             (-7.31935e-12 -1.45386e-11 0)             (-7.97301e-12 -1.3183e-11 0)             (-8.22278e-12 -1.24326e-11 0)             (-8.56073e-12 -1.08324e-11 0)             (-8.64518e-12 -9.99211e-12 0)             (-8.64572e-12 -8.2885e-12 0)             (-8.42548e-12 -6.58805e-12 0)             (-8.24029e-12 -5.75758e-12 0)             (-7.72974e-12 -4.1711e-12 0)             (-7.05741e-12 -2.65511e-12 0)             (-6.2582e-12 -1.27236e-12 0)             (-5.8209e-12 -6.41321e-13 0)             (-4.89899e-12 5.39401e-13 0)             (-3.93478e-12 1.56179e-12 0)             (-2.95805e-12 2.44779e-12 0)             (-2.00092e-12 3.23381e-12 0)             (-1.07778e-12 3.93186e-12 0)             (-2.10513e-13 4.50639e-12 0)             (5.88579e-13 4.9333e-12 0)             (1.30453e-12 5.2724e-12 0)             (1.9333e-12 5.47701e-12 0)             (2.46072e-12 5.57253e-12 0)             (2.89355e-12 5.56288e-12 0)             (3.23212e-12 5.50054e-12 0)             (3.47598e-12 5.33674e-12 0)             (3.63424e-12 5.14495e-12 0)             (3.71678e-12 4.74114e-12 0)             (3.67939e-12 4.44421e-12 0)             (3.57285e-12 4.09382e-12 0)             (3.30792e-12 3.5748e-12 0)             (3.0697e-12 3.19029e-12 0)             (2.64968e-12 2.622e-12 0)             (2.33324e-12 2.24956e-12 0)             (1.82882e-12 1.70616e-12 0)             (1.48081e-12 1.35758e-12 0)             (9.57292e-13 8.64619e-13 0)             (4.43496e-13 4.55663e-13 0)             (-4.86126e-14 4.56995e-14 0)             (-5.07821e-13 -2.81106e-13 0)             (-9.23937e-13 -5.5026e-13 0)             (-1.29527e-12 -7.43316e-13 0)             (-1.61909e-12 -9.0744e-13 0)             (-1.89778e-12 -1.01592e-12 0)             (-2.13533e-12 -1.06393e-12 0)             (-2.33298e-12 -1.1138e-12 0)             (-2.53906e-12 -1.04707e-12 0)             (-2.65514e-12 -9.69234e-13 0)             (-2.76558e-12 -8.71486e-13 0)             (-2.83343e-12 -7.26932e-13 0)
          0.3             (2.28169e-12 -1.31192e-12 0)             (2.15718e-12 -1.93849e-12 0)             (2.00754e-12 -1.70529e-12 0)             (1.76974e-12 -1.28788e-12 0)             (1.47053e-12 -9.95828e-13 0)             (7.73848e-13 -1.32098e-12 0)             (4.20895e-13 -1.97055e-12 0)             (7.85191e-14 -2.84384e-12 0)             (-2.43273e-13 -3.8312e-12 0)             (-8.27476e-13 -5.73854e-12 0)             (-1.09177e-12 -6.52324e-12 0)             (-1.34072e-12 -7.12043e-12 0)             (-1.79495e-12 -7.77826e-12 0)             (-1.9989e-12 -7.82943e-12 0)             (-2.1803e-12 -7.72787e-12 0)             (-2.46168e-12 -7.25965e-12 0)             (-2.55428e-12 -6.95045e-12 0)             (-2.61376e-12 -6.6471e-12 0)             (-2.65018e-12 -6.08739e-12 0)             (-2.63226e-12 -5.86838e-12 0)             (-2.5527e-12 -5.60821e-12 0)             (-2.50344e-12 -5.58948e-12 0)             (-2.45215e-12 -5.6289e-12 0)             (-2.36179e-12 -5.93036e-12 0)             (-2.32656e-12 -6.17431e-12 0)             (-2.29074e-12 -6.82397e-12 0)             (-2.29226e-12 -7.21972e-12 0)             (-2.34391e-12 -8.10907e-12 0)             (-2.45406e-12 -9.0465e-12 0)             (-2.52952e-12 -9.49479e-12 0)             (-2.71691e-12 -1.03696e-11 0)             (-2.82203e-12 -1.07759e-11 0)             (-3.05509e-12 -1.14961e-11 0)             (-3.2962e-12 -1.21237e-11 0)             (-3.41451e-12 -1.23784e-11 0)             (-3.63211e-12 -1.27549e-11 0)             (-3.81761e-12 -1.3021e-11 0)             (-3.95564e-12 -1.31611e-11 0)             (-4.00466e-12 -1.31721e-11 0)             (-4.05283e-12 -1.3166e-11 0)             (-4.02376e-12 -1.31002e-11 0)             (-3.91496e-12 -1.28745e-11 0)             (-3.73844e-12 -1.24133e-11 0)             (-3.50015e-12 -1.18271e-11 0)             (-3.20469e-12 -1.11451e-11 0)             (-2.85329e-12 -1.03764e-11 0)             (-2.45916e-12 -9.5211e-12 0)             (-2.0254e-12 -8.64426e-12 0)             (-1.5578e-12 -7.72084e-12 0)             (-1.06955e-12 -6.80837e-12 0)             (-5.67546e-13 -5.92713e-12 0)             (-6.55151e-14 -5.08139e-12 0)             (4.25076e-13 -4.32508e-12 0)             (1.1222e-12 -3.22687e-12 0)             (1.54972e-12 -2.58466e-12 0)             (1.9429e-12 -1.96939e-12 0)             (2.45857e-12 -1.12146e-12 0)             (2.756e-12 -6.11295e-13 0)             (3.12535e-12 4.5011e-14 0)             (3.32037e-12 4.39248e-13 0)             (3.5453e-12 9.25227e-13 0)             (3.64825e-12 1.20795e-12 0)             (3.73878e-12 1.53957e-12 0)             (3.75555e-12 1.83352e-12 0)             (3.70781e-12 2.03832e-12 0)             (3.61107e-12 2.2347e-12 0)             (3.47228e-12 2.3497e-12 0)             (3.3091e-12 2.47765e-12 0)             (3.12448e-12 2.62303e-12 0)             (2.92923e-12 2.62472e-12 0)             (2.72935e-12 2.49471e-12 0)             (2.5344e-12 2.27599e-12 0)             (2.29594e-12 1.86402e-12 0)             (2.14224e-12 1.47314e-12 0)             (1.97238e-12 8.55923e-13 0)             (1.85604e-12 2.15756e-13 0)
          0.4             (-1.51322e-12 -1.38783e-13 0)             (-1.88294e-12 -1.86554e-13 0)             (-2.05598e-12 -2.60333e-14 0)             (-2.04348e-12 3.2474e-14 0)             (-1.86408e-12 2.82368e-14 0)             (-1.32378e-12 -2.79017e-13 0)             (-1.11081e-12 -4.917e-13 0)             (-1.00464e-12 -6.68753e-13 0)             (-1.02824e-12 -7.92361e-13 0)             (-1.44735e-12 -1.05709e-12 0)             (-1.79942e-12 -1.21761e-12 0)             (-2.20588e-12 -1.42454e-12 0)             (-3.04018e-12 -1.98614e-12 0)             (-3.41053e-12 -2.35852e-12 0)             (-3.72264e-12 -2.77401e-12 0)             (-4.12291e-12 -3.72059e-12 0)             (-4.2065e-12 -4.21149e-12 0)             (-4.21731e-12 -4.69502e-12 0)             (-4.06062e-12 -5.54183e-12 0)             (-3.91993e-12 -5.90779e-12 0)             (-3.58572e-12 -6.45981e-12 0)             (-3.41484e-12 -6.62589e-12 0)             (-3.26039e-12 -6.73365e-12 0)             (-3.02536e-12 -6.81758e-12 0)             (-2.9564e-12 -6.75947e-12 0)             (-2.93849e-12 -6.55958e-12 0)             (-2.98882e-12 -6.42363e-12 0)             (-3.20655e-12 -6.11639e-12 0)             (-3.56474e-12 -5.83959e-12 0)             (-3.787e-12 -5.71639e-12 0)             (-4.30793e-12 -5.54999e-12 0)             (-4.59788e-12 -5.50654e-12 0)             (-5.22969e-12 -5.5557e-12 0)             (-5.90987e-12 -5.73248e-12 0)             (-6.26777e-12 -5.86994e-12 0)             (-6.99219e-12 -6.24016e-12 0)             (-7.72616e-12 -6.68317e-12 0)             (-8.45213e-12 -7.17517e-12 0)             (-8.80492e-12 -7.44365e-12 0)             (-9.48194e-12 -7.93205e-12 0)             (-1.0106e-11 -8.40835e-12 0)             (-1.06577e-11 -8.85363e-12 0)             (-1.11186e-11 -9.27405e-12 0)             (-1.14607e-11 -9.66263e-12 0)             (-1.16786e-11 -1.00037e-11 0)             (-1.17766e-11 -1.02784e-11 0)             (-1.17508e-11 -1.04636e-11 0)             (-1.16059e-11 -1.05481e-11 0)             (-1.13475e-11 -1.0543e-11 0)             (-1.09831e-11 -1.04556e-11 0)             (-1.05227e-11 -1.02762e-11 0)             (-9.97855e-12 -1.00103e-11 0)             (-9.36492e-12 -9.67111e-12 0)             (-8.3452e-12 -9.02727e-12 0)             (-7.61099e-12 -8.55983e-12 0)             (-6.84855e-12 -7.99726e-12 0)             (-5.66273e-12 -7.15155e-12 0)             (-4.84566e-12 -6.55219e-12 0)             (-3.5945e-12 -5.63147e-12 0)             (-2.74585e-12 -4.97128e-12 0)             (-1.46967e-12 -4.04482e-12 0)             (-6.27286e-13 -3.45148e-12 0)             (6.12139e-13 -2.58568e-12 0)             (1.79838e-12 -1.79531e-12 0)             (2.92159e-12 -1.095e-12 0)             (3.96884e-12 -4.78981e-13 0)             (4.92917e-12 5.5906e-14 0)             (5.80045e-12 4.6189e-13 0)             (6.57797e-12 8.182e-13 0)             (7.25912e-12 1.03549e-12 0)             (7.84768e-12 1.20476e-12 0)             (8.34218e-12 1.30328e-12 0)             (8.8623e-12 1.28565e-12 0)             (9.15522e-12 1.25247e-12 0)             (9.42349e-12 1.15595e-12 0)             (9.57056e-12 9.61662e-13 0)
          0.5             (-3.06236e-12 2.73919e-13 0)             (-3.55004e-12 -1.33936e-13 0)             (-3.73586e-12 -3.48213e-13 0)             (-3.62836e-12 -6.28849e-13 0)             (-3.28104e-12 -8.38917e-13 0)             (-2.3695e-12 -9.48074e-13 0)             (-2.01144e-12 -7.97642e-13 0)             (-1.80933e-12 -5.11112e-13 0)             (-1.78911e-12 -1.95632e-13 0)             (-2.24762e-12 2.81054e-13 0)             (-2.65453e-12 3.14352e-13 0)             (-3.12077e-12 2.05311e-13 0)             (-4.06323e-12 -5.18048e-13 0)             (-4.47607e-12 -1.11197e-12 0)             (-4.81761e-12 -1.81969e-12 0)             (-5.26667e-12 -3.37845e-12 0)             (-5.37769e-12 -4.14762e-12 0)             (-5.42374e-12 -4.87051e-12 0)             (-5.38239e-12 -6.0159e-12 0)             (-5.32641e-12 -6.43707e-12 0)             (-5.21997e-12 -6.85178e-12 0)             (-5.19265e-12 -6.87432e-12 0)             (-5.19636e-12 -6.77778e-12 0)             (-5.32029e-12 -6.35502e-12 0)             (-5.44865e-12 -6.01563e-12 0)             (-5.83509e-12 -5.27213e-12 0)             (-6.09051e-12 -4.86545e-12 0)             (-6.71134e-12 -4.11638e-12 0)             (-7.45029e-12 -3.4891e-12 0)             (-7.85007e-12 -3.2683e-12 0)             (-8.6901e-12 -2.99494e-12 0)             (-9.11983e-12 -2.96425e-12 0)             (-9.98251e-12 -3.11166e-12 0)             (-1.08233e-11 -3.5326e-12 0)             (-1.1231e-11 -3.80805e-12 0)             (-1.20025e-11 -4.53116e-12 0)             (-1.27108e-11 -5.42037e-12 0)             (-1.33403e-11 -6.39852e-12 0)             (-1.36235e-11 -6.90554e-12 0)             (-1.41219e-11 -7.89066e-12 0)             (-1.4515e-11 -8.82034e-12 0)             (-1.48e-11 -9.71297e-12 0)             (-1.49752e-11 -1.05457e-11 0)             (-1.50243e-11 -1.12794e-11 0)             (-1.49496e-11 -1.19272e-11 0)             (-1.47554e-11 -1.24767e-11 0)             (-1.44411e-11 -1.28597e-11 0)             (-1.4018e-11 -1.31365e-11 0)             (-1.34863e-11 -1.3252e-11 0)             (-1.28556e-11 -1.3249e-11 0)             (-1.21341e-11 -1.31227e-11 0)             (-1.13274e-11 -1.28572e-11 0)             (-1.04442e-11 -1.24854e-11 0)             (-9.00184e-12 -1.17546e-11 0)             (-7.97158e-12 -1.11696e-11 0)             (-6.89324e-12 -1.05495e-11 0)             (-5.2111e-12 -9.49445e-12 0)             (-4.05571e-12 -8.74841e-12 0)             (-2.2965e-12 -7.55835e-12 0)             (-1.12044e-12 -6.71787e-12 0)             (6.25375e-13 -5.52458e-12 0)             (1.77072e-12 -4.74369e-12 0)             (3.4378e-12 -3.64927e-12 0)             (5.01246e-12 -2.57547e-12 0)             (6.48204e-12 -1.59502e-12 0)             (7.84003e-12 -6.9904e-13 0)             (9.07368e-12 5.86949e-14 0)             (1.01883e-11 6.91338e-13 0)             (1.11749e-11 1.20311e-12 0)             (1.20345e-11 1.59993e-12 0)             (1.27722e-11 1.85493e-12 0)             (1.33866e-11 2.0397e-12 0)             (1.40334e-11 2.11745e-12 0)             (1.43977e-11 2.04474e-12 0)             (1.47301e-11 1.85581e-12 0)             (1.49135e-11 1.52338e-12 0)
          0.6             (3.28844e-12 2.89655e-12 0)             (3.40379e-12 1.2463e-12 0)             (3.35494e-12 -2.91401e-13 0)             (3.20455e-12 -1.69327e-12 0)             (2.9914e-12 -2.51812e-12 0)             (2.53815e-12 -2.47984e-12 0)             (2.39392e-12 -1.87041e-12 0)             (2.34519e-12 -1.10344e-12 0)             (2.39748e-12 -3.38958e-13 0)             (2.75381e-12 7.80267e-13 0)             (3.00626e-12 1.01748e-12 0)             (3.26038e-12 1.04763e-12 0)             (3.65305e-12 5.83341e-13 0)             (3.74343e-12 1.84713e-13 0)             (3.74515e-12 -2.65916e-13 0)             (3.46703e-12 -1.11836e-12 0)             (3.20482e-12 -1.47673e-12 0)             (2.87274e-12 -1.77918e-12 0)             (2.0829e-12 -2.11171e-12 0)             (1.66123e-12 -2.17833e-12 0)             (8.58987e-13 -2.19557e-12 0)             (5.08467e-13 -2.14548e-12 0)             (2.09455e-13 -2.08747e-12 0)             (-2.06568e-13 -1.97791e-12 0)             (-3.13781e-13 -1.92657e-12 0)             (-3.32505e-13 -1.91125e-12 0)             (-2.47033e-13 -1.93535e-12 0)             (7.00151e-14 -2.07854e-12 0)             (5.39184e-13 -2.28703e-12 0)             (8.09266e-13 -2.44233e-12 0)             (1.37497e-12 -2.79034e-12 0)             (1.65859e-12 -3.00525e-12 0)             (2.20096e-12 -3.5385e-12 0)             (2.67891e-12 -4.15385e-12 0)             (2.87828e-12 -4.4256e-12 0)             (3.18465e-12 -4.89439e-12 0)             (3.34484e-12 -5.33536e-12 0)             (3.34959e-12 -5.77442e-12 0)             (3.29626e-12 -5.97844e-12 0)             (3.07536e-12 -6.37151e-12 0)             (2.72321e-12 -6.72726e-12 0)             (2.2509e-12 -7.08154e-12 0)             (1.68452e-12 -7.38663e-12 0)             (1.04897e-12 -7.71759e-12 0)             (3.69198e-13 -8.04353e-12 0)             (-3.31962e-13 -8.3626e-12 0)             (-1.03105e-12 -8.70303e-12 0)             (-1.70771e-12 -9.03979e-12 0)             (-2.34309e-12 -9.38563e-12 0)             (-2.91673e-12 -9.69661e-12 0)             (-3.41236e-12 -9.9659e-12 0)             (-3.82241e-12 -1.0198e-11 0)             (-4.12824e-12 -1.04095e-11 0)             (-4.39019e-12 -1.06011e-11 0)             (-4.43202e-12 -1.06309e-11 0)             (-4.371e-12 -1.06193e-11 0)             (-4.09996e-12 -1.042e-11 0)             (-3.80675e-12 -1.02134e-11 0)             (-3.22754e-12 -9.83478e-12 0)             (-2.75245e-12 -9.54489e-12 0)             (-1.92754e-12 -9.15092e-12 0)             (-1.31109e-12 -8.85169e-12 0)             (-2.94396e-13 -8.47113e-12 0)             (7.70739e-13 -8.04707e-12 0)             (1.87758e-12 -7.66284e-12 0)             (2.99603e-12 -7.16385e-12 0)             (4.10757e-12 -6.6254e-12 0)             (5.1915e-12 -6.04482e-12 0)             (6.23167e-12 -5.45307e-12 0)             (7.21088e-12 -4.80497e-12 0)             (8.11311e-12 -4.13758e-12 0)             (8.92795e-12 -3.45136e-12 0)             (9.86693e-12 -2.55032e-12 0)             (1.04589e-11 -1.90917e-12 0)             (1.10795e-11 -1.09043e-12 0)             (1.15145e-11 -3.45675e-13 0)
          0.7             (4.51381e-12 3.59861e-12 0)             (4.65636e-12 1.58972e-12 0)             (4.62277e-12 -5.60514e-14 0)             (4.45247e-12 -1.5401e-12 0)             (4.20122e-12 -2.3349e-12 0)             (3.69308e-12 -2.20071e-12 0)             (3.54892e-12 -1.5415e-12 0)             (3.52132e-12 -7.35251e-13 0)             (3.61268e-12 7.20862e-14 0)             (4.06712e-12 1.19235e-12 0)             (4.36229e-12 1.41295e-12 0)             (4.64836e-12 1.42678e-12 0)             (5.05559e-12 9.647e-13 0)             (5.12989e-12 5.99656e-13 0)             (5.09779e-12 2.05262e-13 0)             (4.72483e-12 -5.37748e-13 0)             (4.40985e-12 -8.52524e-13 0)             (4.03339e-12 -1.09901e-12 0)             (3.17577e-12 -1.41034e-12 0)             (2.74258e-12 -1.473e-12 0)             (1.97109e-12 -1.53605e-12 0)             (1.66415e-12 -1.52816e-12 0)             (1.42722e-12 -1.506e-12 0)             (1.18578e-12 -1.53165e-12 0)             (1.1848e-12 -1.57106e-12 0)             (1.41303e-12 -1.70645e-12 0)             (1.62674e-12 -1.82196e-12 0)             (2.21687e-12 -2.13352e-12 0)             (2.95432e-12 -2.51939e-12 0)             (3.35384e-12 -2.75073e-12 0)             (4.15736e-12 -3.20416e-12 0)             (4.54343e-12 -3.46959e-12 0)             (5.25626e-12 -4.04701e-12 0)             (5.84232e-12 -4.61799e-12 0)             (6.0746e-12 -4.89552e-12 0)             (6.40484e-12 -5.4108e-12 0)             (6.54227e-12 -5.89419e-12 0)             (6.48025e-12 -6.30244e-12 0)             (6.37822e-12 -6.51534e-12 0)             (6.04003e-12 -6.86401e-12 0)             (5.54442e-12 -7.18598e-12 0)             (4.91144e-12 -7.5107e-12 0)             (4.17304e-12 -7.78957e-12 0)             (3.35989e-12 -8.05999e-12 0)             (2.50163e-12 -8.30107e-12 0)             (1.62712e-12 -8.56282e-12 0)             (7.60127e-13 -8.80577e-12 0)             (-7.00817e-14 -9.02397e-12 0)             (-8.47506e-13 -9.23145e-12 0)             (-1.55244e-12 -9.42608e-12 0)             (-2.1699e-12 -9.53892e-12 0)             (-2.68623e-12 -9.63865e-12 0)             (-3.09873e-12 -9.67424e-12 0)             (-3.5166e-12 -9.63857e-12 0)             (-3.66303e-12 -9.53431e-12 0)             (-3.70276e-12 -9.40344e-12 0)             (-3.56711e-12 -9.11857e-12 0)             (-3.35443e-12 -8.9511e-12 0)             (-2.86139e-12 -8.63798e-12 0)             (-2.424e-12 -8.41526e-12 0)             (-1.62327e-12 -8.08463e-12 0)             (-1.00079e-12 -7.8793e-12 0)             (7.82554e-14 -7.5173e-12 0)             (1.22688e-12 -7.14499e-12 0)             (2.41867e-12 -6.7643e-12 0)             (3.62674e-12 -6.33954e-12 0)             (4.81881e-12 -5.88055e-12 0)             (5.97666e-12 -5.38692e-12 0)             (7.07521e-12 -4.79569e-12 0)             (8.09493e-12 -4.20315e-12 0)             (9.01915e-12 -3.62493e-12 0)             (9.83749e-12 -3.04417e-12 0)             (1.07551e-11 -2.28358e-12 0)             (1.13055e-11 -1.73858e-12 0)             (1.18391e-11 -1.02878e-12 0)             (1.21498e-11 -3.49215e-13 0)
          0.8             (-8.66117e-13 4.11383e-12 0)             (-7.93045e-13 1.72808e-12 0)             (-8.26291e-13 -9.94405e-14 0)             (-9.59639e-13 -1.73098e-12 0)             (-1.14254e-12 -2.58493e-12 0)             (-1.45717e-12 -2.28242e-12 0)             (-1.5015e-12 -1.46771e-12 0)             (-1.43755e-12 -5.07094e-13 0)             (-1.27382e-12 3.91542e-13 0)             (-7.29796e-13 1.58434e-12 0)             (-4.15217e-13 1.78261e-12 0)             (-1.23385e-13 1.73142e-12 0)             (2.78254e-13 1.04428e-12 0)             (3.46851e-13 5.37381e-13 0)             (3.17724e-13 -8.46605e-15 0)             (-2.08935e-14 -9.81445e-13 0)             (-3.02184e-13 -1.37769e-12 0)             (-6.33851e-13 -1.6907e-12 0)             (-1.35175e-12 -2.05007e-12 0)             (-1.69384e-12 -2.11301e-12 0)             (-2.24718e-12 -2.10221e-12 0)             (-2.42802e-12 -2.04756e-12 0)             (-2.5307e-12 -1.99207e-12 0)             (-2.48183e-12 -1.87612e-12 0)             (-2.33009e-12 -1.84832e-12 0)             (-1.7894e-12 -1.89542e-12 0)             (-1.41735e-12 -1.96491e-12 0)             (-5.14856e-13 -2.2264e-12 0)             (5.25866e-13 -2.61354e-12 0)             (1.06943e-12 -2.85283e-12 0)             (2.14991e-12 -3.40538e-12 0)             (2.66768e-12 -3.69743e-12 0)             (3.61975e-12 -4.33907e-12 0)             (4.41642e-12 -4.9668e-12 0)             (4.74268e-12 -5.28193e-12 0)             (5.24062e-12 -5.87187e-12 0)             (5.51955e-12 -6.42236e-12 0)             (5.57845e-12 -6.91457e-12 0)             (5.5294e-12 -7.16878e-12 0)             (5.28834e-12 -7.58859e-12 0)             (4.87646e-12 -7.96874e-12 0)             (4.3213e-12 -8.29578e-12 0)             (3.65106e-12 -8.587e-12 0)             (2.90634e-12 -8.84391e-12 0)             (2.11398e-12 -9.0461e-12 0)             (1.29944e-12 -9.22512e-12 0)             (4.94281e-13 -9.37086e-12 0)             (-2.76956e-13 -9.46925e-12 0)             (-9.9891e-13 -9.52696e-12 0)             (-1.65486e-12 -9.52407e-12 0)             (-2.23029e-12 -9.51316e-12 0)             (-2.71835e-12 -9.41702e-12 0)             (-3.11153e-12 -9.25229e-12 0)             (-3.51393e-12 -8.97408e-12 0)             (-3.65439e-12 -8.74046e-12 0)             (-3.69266e-12 -8.47604e-12 0)             (-3.55067e-12 -8.05274e-12 0)             (-3.3296e-12 -7.74067e-12 0)             (-2.82242e-12 -7.28504e-12 0)             (-2.37945e-12 -6.94899e-12 0)             (-1.58124e-12 -6.50852e-12 0)             (-9.57916e-13 -6.15177e-12 0)             (1.58827e-13 -5.71272e-12 0)             (1.33405e-12 -5.29469e-12 0)             (2.5433e-12 -4.91134e-12 0)             (3.75927e-12 -4.49341e-12 0)             (4.94621e-12 -4.05648e-12 0)             (6.08281e-12 -3.59512e-12 0)             (7.14922e-12 -3.10735e-12 0)             (8.12255e-12 -2.66674e-12 0)             (8.98359e-12 -2.21268e-12 0)             (9.72505e-12 -1.78269e-12 0)             (1.05148e-11 -1.20792e-12 0)             (1.09518e-11 -8.50776e-13 0)             (1.13083e-11 -4.04876e-13 0)             (1.1412e-11 -6.59733e-14 0)