# Probe 0 (15.31 -0.61 0)
# Probe 1 (15.31 -0.6 0)
# Probe 2 (15.31 -0.59 0)
# Probe 3 (15.31 -0.58 0)
# Probe 4 (15.31 -0.57 0)
# Probe 5 (15.31 -0.56 0)
# Probe 6 (15.31 -0.55 0)
# Probe 7 (15.31 -0.54 0)
# Probe 8 (15.31 -0.53 0)
# Probe 9 (15.31 -0.52 0)
# Probe 10 (15.31 -0.51 0)
# Probe 11 (15.31 -0.5 0)
# Probe 12 (15.31 -0.49 0)
# Probe 13 (15.31 -0.48 0)
# Probe 14 (15.31 -0.47 0)
# Probe 15 (15.31 -0.46 0)
# Probe 16 (15.31 -0.45 0)
# Probe 17 (15.31 -0.44 0)
# Probe 18 (15.31 -0.43 0)
# Probe 19 (15.31 -0.42 0)
# Probe 20 (15.31 -0.41 0)
# Probe 21 (15.31 -0.4 0)
# Probe 22 (15.31 -0.39 0)
# Probe 23 (15.31 -0.38 0)
# Probe 24 (15.31 -0.37 0)
# Probe 25 (15.31 -0.36 0)
# Probe 26 (15.31 -0.35 0)
# Probe 27 (15.31 -0.34 0)
# Probe 28 (15.31 -0.33 0)
# Probe 29 (15.31 -0.32 0)
# Probe 30 (15.31 -0.31 0)
# Probe 31 (15.31 -0.3 0)
# Probe 32 (15.31 -0.29 0)
# Probe 33 (15.31 -0.28 0)
# Probe 34 (15.31 -0.27 0)
# Probe 35 (15.31 -0.26 0)
# Probe 36 (15.31 -0.25 0)
# Probe 37 (15.31 -0.24 0)
# Probe 38 (15.31 -0.23 0)
# Probe 39 (15.31 -0.22 0)
# Probe 40 (15.31 -0.21 0)
# Probe 41 (15.31 -0.2 0)
# Probe 42 (15.31 -0.19 0)
# Probe 43 (15.31 -0.18 0)
# Probe 44 (15.31 -0.17 0)
# Probe 45 (15.31 -0.16 0)
# Probe 46 (15.31 -0.15 0)
# Probe 47 (15.31 -0.14 0)
# Probe 48 (15.31 -0.13 0)
# Probe 49 (15.31 -0.12 0)
# Probe 50 (15.31 -0.11 0)
# Probe 51 (15.31 -0.1 0)
# Probe 52 (15.31 -0.09 0)
# Probe 53 (15.31 -0.08 0)
# Probe 54 (15.31 -0.07 0)
# Probe 55 (15.31 -0.06 0)
# Probe 56 (15.31 -0.05 0)
# Probe 57 (15.31 -0.04 0)
# Probe 58 (15.31 -0.03 0)
# Probe 59 (15.31 -0.02 0)
# Probe 60 (15.31 -0.01 0)
# Probe 61 (15.31 0 0)
# Probe 62 (15.31 0.01 0)
# Probe 63 (15.31 0.02 0)
# Probe 64 (15.31 0.03 0)
# Probe 65 (15.31 0.04 0)
# Probe 66 (15.31 0.05 0)
# Probe 67 (15.31 0.06 0)
# Probe 68 (15.31 0.07 0)
# Probe 69 (15.31 0.08 0)
# Probe 70 (15.31 0.09 0)
# Probe 71 (15.31 0.1 0)
# Probe 72 (15.31 0.11 0)
# Probe 73 (15.31 0.12 0)
# Probe 74 (15.31 0.13 0)
# Probe 75 (15.31 0.14 0)
#       Probe             0             1             2             3             4             5             6             7             8             9            10            11            12            13            14            15            16            17            18            19            20            21            22            23            24            25            26            27            28            29            30            31            32            33            34            35            36            37            38            39            40            41            42            43            44            45            46            47            48            49            50            51            52            53            54            55            56            57            58            59            60            61            62            63            64            65            66            67            68            69            70            71            72            73            74            75
#        Time
          0.1             1             1             1             1             1             1             1             1             1             1             1             1             1             1             1             1             1             1             1             1             1             1             1             1             1             1             1             1             1             1             1             1             1             1             1             1             1             1             1             1             1             1             1             1             1             1             1             1             1             1             1             1             1             1             1             1             1             1             1             1             1             1      0.998634      0.997951      0.996586       0.99522      0.994537      0.993171      0.991806       0.99044      0.989074      0.987026       0.98566      0.983611      0.981563      0.978831
          0.2             1             1             1             1             1             1             1             1             1             1             1             1             1             1             1             1             1             1             1             1             1             1             1             1             1             1             1             1             1             1             1             1             1             1             1             1             1             1             1             1             1             1             1             1             1             1             1             1             1             1             1             1             1             1             1             1             1             1             1             1             1             1      0.998634      0.997951      0.996586       0.99522      0.994537      0.993171      0.991806       0.99044      0.989074      0.987026       0.98566      0.983611      0.981563      0.978831
          0.3             1             1             1             1             1             1             1             1             1             1             1             1             1             1             1             1             1             1             1             1             1             1             1             1             1             1             1             1             1             1             1             1             1             1             1             1             1             1             1             1             1             1             1             1             1             1             1             1             1             1             1             1             1             1             1             1             1             1             1             1             1             1      0.998634      0.997951      0.996586       0.99522      0.994537      0.993171      0.991806       0.99044      0.989074      0.987026       0.98566      0.983611      0.981563      0.978831
          0.4             1             1             1             1             1             1             1             1             1             1             1             1             1             1             1             1             1             1             1             1             1             1             1             1             1             1             1             1             1             1             1             1             1             1             1             1             1             1             1             1             1             1             1             1             1             1             1             1             1             1             1             1             1             1             1             1             1             1             1             1             1             1      0.998634      0.997951      0.996586       0.99522      0.994537      0.993171      0.991806       0.99044      0.989074      0.987026       0.98566      0.983611      0.981563      0.978831
          0.5             1             1             1             1             1             1             1             1             1             1             1             1             1             1             1             1             1             1             1             1             1             1             1             1             1             1             1             1             1             1             1             1             1             1             1             1             1             1             1             1             1             1             1             1             1             1             1             1             1             1             1             1             1             1             1             1             1             1             1             1             1             1      0.998634      0.997951      0.996586       0.99522      0.994537      0.993171      0.991806       0.99044      0.989074      0.987026       0.98566      0.983611      0.981563      0.978831
          0.6             1             1             1             1             1             1             1             1             1             1             1             1             1             1             1             1             1             1             1             1             1             1             1             1             1             1             1             1             1             1             1             1             1             1             1             1             1             1             1             1             1             1             1             1             1             1             1             1             1             1             1             1             1             1             1             1             1             1             1             1             1             1      0.998634      0.997951      0.996586       0.99522      0.994537      0.993171      0.991806       0.99044      0.989074      0.987026       0.98566      0.983611      0.981563      0.978831
          0.7             1             1             1             1             1             1             1             1             1             1             1             1             1             1             1             1             1             1             1             1             1             1             1             1             1             1             1             1             1             1             1             1             1             1             1             1             1             1             1             1             1             1             1             1             1             1             1             1             1             1             1             1             1             1             1             1             1             1             1             1             1             1      0.998634      0.997951      0.996586       0.99522      0.994537      0.993171      0.991806       0.99044      0.989074      0.987026       0.98566      0.983611      0.981563      0.978831
          0.8             1             1             1             1             1             1             1             1             1             1             1             1             1             1             1             1             1             1             1             1             1             1             1             1             1             1             1             1             1             1             1             1             1             1             1             1             1             1             1             1             1             1             1             1             1             1             1             1             1             1             1             1             1             1             1             1             1             1             1             1             1             1      0.998634      0.997951      0.996586       0.99522      0.994537      0.993171      0.991806       0.99044      0.989074      0.987026       0.98566      0.983611      0.981563      0.978831
          0.9             1             1             1             1             1             1             1             1             1             1             1             1             1             1             1             1             1             1             1             1             1             1             1             1             1             1             1             1             1             1             1             1             1             1             1             1             1             1             1             1             1             1             1             1             1             1             1             1             1             1             1             1             1             1             1             1             1             1             1             1             1             1      0.998634      0.997951      0.996586       0.99522      0.994537      0.993171      0.991806       0.99044      0.989074      0.987026       0.98566      0.983611      0.981563      0.978831
            1             1             1             1             1             1             1             1             1             1             1             1             1             1             1             1             1             1             1             1             1             1             1             1             1             1             1             1             1             1             1             1             1             1             1             1             1             1             1             1             1             1             1             1             1             1             1             1             1             1             1             1             1             1             1             1             1             1             1             1             1             1             1      0.998634      0.997951      0.996586       0.99522      0.994537      0.993171      0.991806       0.99044      0.989074      0.987026       0.98566      0.983611      0.981563      0.978831
          1.1             1             1             1             1             1             1             1             1             1             1             1             1             1             1             1             1             1             1             1             1             1             1             1             1             1             1             1             1             1             1             1             1             1             1             1             1             1             1             1             1             1             1             1             1             1             1             1             1             1             1             1             1             1             1             1             1             1             1             1             1             1             1      0.998634      0.997951      0.996586       0.99522      0.994537      0.993171      0.991806       0.99044      0.989074      0.987026       0.98566      0.983611      0.981563      0.978831
          1.2             1             1             1             1             1             1             1             1             1             1             1             1             1             1             1             1             1             1             1             1             1             1             1             1             1             1             1             1             1             1             1             1             1             1             1             1             1             1             1             1             1             1             1             1             1             1             1             1             1             1             1             1             1             1             1             1             1             1             1             1             1             1      0.998634      0.997951      0.996586       0.99522      0.994537      0.993171      0.991806       0.99044      0.989074      0.987026       0.98566      0.983611      0.981563      0.978831
          1.3             1             1             1             1             1             1             1             1             1             1             1             1             1             1             1             1             1             1             1             1             1             1             1             1             1             1             1             1             1             1             1             1             1             1             1             1             1             1             1             1             1             1             1             1             1             1             1             1             1             1             1             1             1             1             1             1             1             1             1             1             1             1      0.998634      0.997951      0.996586       0.99522      0.994537      0.993171      0.991806       0.99044      0.989074      0.987026       0.98566      0.983611      0.981563      0.978831
          1.4             1             1             1             1             1             1             1             1             1             1             1             1             1             1             1             1             1             1             1             1             1             1             1             1             1             1             1             1             1             1             1             1             1             1             1             1             1             1             1             1             1             1             1             1             1             1             1             1             1             1             1             1             1             1             1             1             1             1             1             1             1             1      0.998634      0.997951      0.996586       0.99522      0.994537      0.993171      0.991806       0.99044      0.989074      0.987026       0.98566      0.983611      0.981563      0.978831
          1.5             1             1             1             1             1             1             1             1             1             1             1             1             1             1             1             1             1             1             1             1             1             1             1             1             1             1             1             1             1             1             1             1             1             1             1             1             1             1             1             1             1             1             1             1             1             1             1             1             1             1             1             1             1             1             1             1             1             1             1             1             1             1      0.998634      0.997951      0.996586       0.99522      0.994537      0.993171      0.991806       0.99044      0.989074      0.987026       0.98566      0.983611      0.981563      0.978831
          1.6             1             1             1             1             1             1             1             1             1             1             1             1             1             1             1             1             1             1             1             1             1             1             1             1             1             1             1             1             1             1             1             1             1             1             1             1             1             1             1             1             1             1             1             1             1             1             1             1             1             1             1             1             1             1             1             1             1             1             1             1             1             1      0.998634      0.997951      0.996586       0.99522      0.994537      0.993171      0.991806       0.99044      0.989074      0.987026       0.98566      0.983611      0.981563      0.978831
          1.7             1             1             1             1             1             1             1             1             1             1             1             1             1             1             1             1             1             1             1             1             1             1             1             1             1             1             1             1             1             1             1             1             1             1             1             1             1             1             1             1             1             1             1             1             1             1             1             1             1             1             1             1             1             1             1             1             1             1             1             1             1             1      0.998634      0.997951      0.996586       0.99522      0.994537      0.993171      0.991806       0.99044      0.989074      0.987026       0.98566      0.983611      0.981563      0.978831
          1.8             1             1             1             1             1             1             1             1             1             1             1             1             1             1             1             1             1             1             1             1             1             1             1             1             1             1             1             1             1             1             1             1             1             1             1             1             1             1             1             1             1             1             1             1             1             1             1             1             1             1             1             1             1             1             1             1             1             1             1             1             1             1      0.998634      0.997951      0.996586       0.99522      0.994537      0.993171      0.991806       0.99044      0.989074      0.987026       0.98566      0.983611      0.981563      0.978831
          1.9             1             1             1             1             1             1             1             1             1             1             1             1             1             1             1             1             1             1             1             1             1             1             1             1             1             1             1             1             1             1             1             1             1             1             1             1             1             1             1             1             1             1             1             1             1             1             1             1             1             1             1             1             1             1             1             1             1             1             1             1             1             1      0.998634      0.997951      0.996586       0.99522      0.994537      0.993171      0.991806       0.99044      0.989074      0.987026       0.98566      0.983611      0.981563      0.978831
            2             1             1             1             1             1             1             1             1             1             1             1             1             1             1             1             1             1             1             1             1             1             1             1             1             1             1             1             1             1             1             1             1             1             1             1             1             1             1             1             1             1             1             1             1             1             1             1             1             1             1             1             1             1             1             1             1             1             1             1             1             1             1      0.998634      0.997951      0.996586       0.99522      0.994537      0.993171      0.991806       0.99044      0.989074      0.987026       0.98566      0.983611      0.981563      0.978831
          2.1             1             1             1             1             1             1             1             1             1             1             1             1             1             1             1             1             1             1             1             1             1             1             1             1             1             1             1             1             1             1             1             1             1             1             1             1             1             1             1             1             1             1             1             1             1             1             1             1             1             1             1             1             1             1             1             1             1             1             1             1             1             1      0.998634      0.997951      0.996586       0.99522      0.994537      0.993171      0.991806       0.99044      0.989074      0.987026       0.98566      0.983611      0.981563      0.978831
          2.2             1             1             1             1             1             1             1             1             1             1             1             1             1             1             1             1             1             1             1             1             1             1             1             1             1             1             1             1             1             1             1             1             1             1             1             1             1             1             1             1             1             1             1             1             1             1             1             1             1             1             1             1             1             1             1             1             1             1             1             1             1             1      0.998634      0.997951      0.996586       0.99522      0.994537      0.993171      0.991806       0.99044      0.989074      0.987026       0.98566      0.983611      0.981563      0.978831
          2.3             1             1             1             1             1             1             1             1             1             1             1             1             1             1             1             1             1             1             1             1             1             1             1             1             1             1             1             1             1             1             1             1             1             1             1             1             1             1             1             1             1             1             1             1             1             1             1             1             1             1             1             1             1             1             1             1             1             1             1             1             1             1      0.998634      0.997951      0.996586       0.99522      0.994537      0.993171      0.991806       0.99044      0.989074      0.987026       0.98566      0.983611      0.981563      0.978831
          2.4             1             1             1             1             1             1             1             1             1             1             1             1             1             1             1             1             1             1             1             1             1             1             1             1             1             1             1             1             1             1             1             1             1             1             1             1             1             1             1             1             1             1             1             1             1             1             1             1             1             1             1             1             1             1             1             1             1             1             1             1             1             1      0.998634      0.997951      0.996586       0.99522      0.994537      0.993171      0.991806       0.99044      0.989074      0.987026       0.98566      0.983611      0.981563      0.978831