# Probe 0 (15.31 -0.61 0)
# Probe 1 (15.31 -0.6 0)
# Probe 2 (15.31 -0.59 0)
# Probe 3 (15.31 -0.58 0)
# Probe 4 (15.31 -0.57 0)
# Probe 5 (15.31 -0.56 0)
# Probe 6 (15.31 -0.55 0)
# Probe 7 (15.31 -0.54 0)
# Probe 8 (15.31 -0.53 0)
# Probe 9 (15.31 -0.52 0)
# Probe 10 (15.31 -0.51 0)
# Probe 11 (15.31 -0.5 0)
# Probe 12 (15.31 -0.49 0)
# Probe 13 (15.31 -0.48 0)
# Probe 14 (15.31 -0.47 0)
# Probe 15 (15.31 -0.46 0)
# Probe 16 (15.31 -0.45 0)
# Probe 17 (15.31 -0.44 0)
# Probe 18 (15.31 -0.43 0)
# Probe 19 (15.31 -0.42 0)
# Probe 20 (15.31 -0.41 0)
# Probe 21 (15.31 -0.4 0)
# Probe 22 (15.31 -0.39 0)
# Probe 23 (15.31 -0.38 0)
# Probe 24 (15.31 -0.37 0)
# Probe 25 (15.31 -0.36 0)
# Probe 26 (15.31 -0.35 0)
# Probe 27 (15.31 -0.34 0)
# Probe 28 (15.31 -0.33 0)
# Probe 29 (15.31 -0.32 0)
# Probe 30 (15.31 -0.31 0)
# Probe 31 (15.31 -0.3 0)
# Probe 32 (15.31 -0.29 0)
# Probe 33 (15.31 -0.28 0)
# Probe 34 (15.31 -0.27 0)
# Probe 35 (15.31 -0.26 0)
# Probe 36 (15.31 -0.25 0)
# Probe 37 (15.31 -0.24 0)
# Probe 38 (15.31 -0.23 0)
# Probe 39 (15.31 -0.22 0)
# Probe 40 (15.31 -0.21 0)
# Probe 41 (15.31 -0.2 0)
# Probe 42 (15.31 -0.19 0)
# Probe 43 (15.31 -0.18 0)
# Probe 44 (15.31 -0.17 0)
# Probe 45 (15.31 -0.16 0)
# Probe 46 (15.31 -0.15 0)
# Probe 47 (15.31 -0.14 0)
# Probe 48 (15.31 -0.13 0)
# Probe 49 (15.31 -0.12 0)
# Probe 50 (15.31 -0.11 0)
# Probe 51 (15.31 -0.1 0)
# Probe 52 (15.31 -0.09 0)
# Probe 53 (15.31 -0.08 0)
# Probe 54 (15.31 -0.07 0)
# Probe 55 (15.31 -0.06 0)
# Probe 56 (15.31 -0.05 0)
# Probe 57 (15.31 -0.04 0)
# Probe 58 (15.31 -0.03 0)
# Probe 59 (15.31 -0.02 0)
# Probe 60 (15.31 -0.01 0)
# Probe 61 (15.31 0 0)
# Probe 62 (15.31 0.01 0)
# Probe 63 (15.31 0.02 0)
# Probe 64 (15.31 0.03 0)
# Probe 65 (15.31 0.04 0)
# Probe 66 (15.31 0.05 0)
# Probe 67 (15.31 0.06 0)
# Probe 68 (15.31 0.07 0)
# Probe 69 (15.31 0.08 0)
# Probe 70 (15.31 0.09 0)
# Probe 71 (15.31 0.1 0)
# Probe 72 (15.31 0.11 0)
# Probe 73 (15.31 0.12 0)
# Probe 74 (15.31 0.13 0)
# Probe 75 (15.31 0.14 0)
#       Probe             0             1             2             3             4             5             6             7             8             9            10            11            12            13            14            15            16            17            18            19            20            21            22            23            24            25            26            27            28            29            30            31            32            33            34            35            36            37            38            39            40            41            42            43            44            45            46            47            48            49            50            51            52            53            54            55            56            57            58            59            60            61            62            63            64            65            66            67            68            69            70            71            72            73            74            75
#        Time
          0.1             (1.96001e-11 3.07735e-13 0)             (1.96001e-11 3.07735e-13 0)             (1.96963e-11 -3.84825e-14 0)             (1.96963e-11 -3.84825e-14 0)             (1.96963e-11 -3.84825e-14 0)             (1.97827e-11 -1.74452e-12 0)             (1.97827e-11 -1.74452e-12 0)             (1.9597e-11 -3.06066e-12 0)             (1.9597e-11 -3.06066e-12 0)             (1.89078e-11 -3.34137e-12 0)             (1.89078e-11 -3.34137e-12 0)             (1.7827e-11 -3.41184e-12 0)             (1.7827e-11 -3.41184e-12 0)             (1.7827e-11 -3.41184e-12 0)             (1.64714e-11 -3.60631e-12 0)             (1.64714e-11 -3.60631e-12 0)             (1.49519e-11 -3.9965e-12 0)             (1.49519e-11 -3.9965e-12 0)             (1.33448e-11 -4.57708e-12 0)             (1.33448e-11 -4.57708e-12 0)             (1.17001e-11 -5.29243e-12 0)             (1.17001e-11 -5.29243e-12 0)             (1.0049e-11 -6.07537e-12 0)             (1.0049e-11 -6.07537e-12 0)             (8.4098e-12 -6.84224e-12 0)             (6.79715e-12 -7.48954e-12 0)             (6.79715e-12 -7.48954e-12 0)             (5.22286e-12 -8.00623e-12 0)             (5.22286e-12 -8.00623e-12 0)             (3.69292e-12 -8.44269e-12 0)             (3.69292e-12 -8.44269e-12 0)             (2.20402e-12 -8.87941e-12 0)             (7.58356e-13 -9.36825e-12 0)             (7.58356e-13 -9.36825e-12 0)             (-6.51728e-13 -9.83928e-12 0)             (-2.02752e-12 -1.02408e-11 0)             (-2.02752e-12 -1.02408e-11 0)             (-3.36814e-12 -1.05776e-11 0)             (-4.67521e-12 -1.08586e-11 0)             (-4.67521e-12 -1.08586e-11 0)             (-5.94853e-12 -1.10985e-11 0)             (-7.18703e-12 -1.12905e-11 0)             (-8.38849e-12 -1.14334e-11 0)             (-8.38849e-12 -1.14334e-11 0)             (-9.55305e-12 -1.15347e-11 0)             (-1.06789e-11 -1.15874e-11 0)             (-1.17652e-11 -1.15967e-11 0)             (-1.28105e-11 -1.15694e-11 0)             (-1.38153e-11 -1.15137e-11 0)             (-1.47777e-11 -1.14117e-11 0)             (-1.56978e-11 -1.1283e-11 0)             (-1.65747e-11 -1.11396e-11 0)             (-1.7409e-11 -1.09652e-11 0)             (-1.8201e-11 -1.07694e-11 0)             (-1.89513e-11 -1.05508e-11 0)             (-1.96597e-11 -1.03263e-11 0)             (-2.0329e-11 -1.00862e-11 0)             (-2.09586e-11 -9.82696e-12 0)             (-2.15522e-11 -9.5628e-12 0)             (-2.26364e-11 -9.00891e-12 0)             (-2.31294e-11 -8.72714e-12 0)             (-2.35924e-11 -8.44044e-12 0)             (-2.44307e-11 -7.85603e-12 0)             (-2.48085e-11 -7.57213e-12 0)             (-2.54883e-11 -6.98259e-12 0)             (-2.60729e-11 -6.40597e-12 0)             (-2.63322e-11 -6.1158e-12 0)             (-2.67931e-11 -5.53735e-12 0)             (-2.71815e-11 -4.99541e-12 0)             (-2.75059e-11 -4.48341e-12 0)             (-2.77726e-11 -3.98155e-12 0)             (-2.80817e-11 -3.24703e-12 0)             (-2.8235e-11 -2.77944e-12 0)             (-2.83991e-11 -2.12308e-12 0)             (-2.84986e-11 -1.49805e-12 0)             (-2.85536e-11 -7.67564e-13 0)
          0.2             (3.30791e-11 3.92525e-12 0)             (3.30791e-11 3.92525e-12 0)             (3.21241e-11 3.64221e-12 0)             (3.21241e-11 3.64221e-12 0)             (3.21241e-11 3.64221e-12 0)             (3.06281e-11 1.08263e-13 0)             (3.06281e-11 1.08263e-13 0)             (2.87231e-11 1.0792e-12 0)             (2.87231e-11 1.0792e-12 0)             (2.69433e-11 1.63946e-12 0)             (2.69433e-11 1.63946e-12 0)             (2.53531e-11 1.8944e-12 0)             (2.53531e-11 1.8944e-12 0)             (2.53531e-11 1.8944e-12 0)             (2.39036e-11 1.63109e-12 0)             (2.39036e-11 1.63109e-12 0)             (2.25141e-11 9.32848e-13 0)             (2.25141e-11 9.32848e-13 0)             (2.11053e-11 -6.91083e-14 0)             (2.11053e-11 -6.91083e-14 0)             (1.9616e-11 -1.22412e-12 0)             (1.9616e-11 -1.22412e-12 0)             (1.80146e-11 -2.4232e-12 0)             (1.80146e-11 -2.4232e-12 0)             (1.62904e-11 -3.59752e-12 0)             (1.44517e-11 -4.70735e-12 0)             (1.44517e-11 -4.70735e-12 0)             (1.25147e-11 -5.7489e-12 0)             (1.25147e-11 -5.7489e-12 0)             (1.05035e-11 -6.70372e-12 0)             (1.05035e-11 -6.70372e-12 0)             (8.44075e-12 -7.55231e-12 0)             (6.34635e-12 -8.29991e-12 0)             (6.34635e-12 -8.29991e-12 0)             (4.24244e-12 -8.94296e-12 0)             (2.14795e-12 -9.46663e-12 0)             (2.14795e-12 -9.46663e-12 0)             (7.86608e-14 -9.89769e-12 0)             (-1.94777e-12 -1.02607e-11 0)             (-1.94777e-12 -1.02607e-11 0)             (-3.92025e-12 -1.0566e-11 0)             (-5.82732e-12 -1.08273e-11 0)             (-7.66221e-12 -1.10464e-11 0)             (-7.66221e-12 -1.10464e-11 0)             (-9.42296e-12 -1.1218e-11 0)             (-1.1106e-11 -1.13394e-11 0)             (-1.27097e-11 -1.14111e-11 0)             (-1.42341e-11 -1.14305e-11 0)             (-1.56802e-11 -1.1402e-11 0)             (-1.7048e-11 -1.1336e-11 0)             (-1.83406e-11 -1.12375e-11 0)             (-1.95582e-11 -1.11054e-11 0)             (-2.07035e-11 -1.09377e-11 0)             (-2.17789e-11 -1.07416e-11 0)             (-2.27871e-11 -1.05276e-11 0)             (-2.37315e-11 -1.02983e-11 0)             (-2.46149e-11 -1.00524e-11 0)             (-2.54408e-11 -9.79146e-12 0)             (-2.62101e-11 -9.51498e-12 0)             (-2.75967e-11 -8.94134e-12 0)             (-2.82177e-11 -8.64231e-12 0)             (-2.87967e-11 -8.34575e-12 0)             (-2.98347e-11 -7.73005e-12 0)             (-3.02958e-11 -7.42602e-12 0)             (-3.11124e-11 -6.8088e-12 0)             (-3.18033e-11 -6.19367e-12 0)             (-3.21063e-11 -5.89321e-12 0)             (-3.26359e-11 -5.2761e-12 0)             (-3.30729e-11 -4.73175e-12 0)             (-3.34311e-11 -4.17875e-12 0)             (-3.37185e-11 -3.64736e-12 0)             (-3.40379e-11 -2.88515e-12 0)             (-3.41886e-11 -2.39273e-12 0)             (-3.4338e-11 -1.69445e-12 0)             (-3.44142e-11 -1.08629e-12 0)             (-3.44271e-11 -2.98839e-13 0)
          0.3             (1.94067e-11 4.27465e-12 0)             (1.94067e-11 4.27465e-12 0)             (1.975e-11 6.55406e-12 0)             (1.975e-11 6.55406e-12 0)             (1.975e-11 6.55406e-12 0)             (1.88003e-11 5.76922e-12 0)             (1.88003e-11 5.76922e-12 0)             (1.79719e-11 6.02922e-12 0)             (1.79719e-11 6.02922e-12 0)             (1.73581e-11 4.50518e-12 0)             (1.73581e-11 4.50518e-12 0)             (1.68787e-11 3.54097e-12 0)             (1.68787e-11 3.54097e-12 0)             (1.68787e-11 3.54097e-12 0)             (1.64238e-11 3.03663e-12 0)             (1.64238e-11 3.03663e-12 0)             (1.59062e-11 3.04308e-12 0)             (1.59062e-11 3.04308e-12 0)             (1.52731e-11 3.41648e-12 0)             (1.52731e-11 3.41648e-12 0)             (1.45064e-11 4.04138e-12 0)             (1.45064e-11 4.04138e-12 0)             (1.3611e-11 4.84417e-12 0)             (1.3611e-11 4.84417e-12 0)             (1.26041e-11 5.71708e-12 0)             (1.151e-11 6.60085e-12 0)             (1.151e-11 6.60085e-12 0)             (1.0353e-11 7.45914e-12 0)             (1.0353e-11 7.45914e-12 0)             (9.1593e-12 8.25931e-12 0)             (9.1593e-12 8.25931e-12 0)             (7.95093e-12 8.96565e-12 0)             (6.74784e-12 9.54892e-12 0)             (6.74784e-12 9.54892e-12 0)             (5.56644e-12 9.9987e-12 0)             (4.41879e-12 1.03052e-11 0)             (4.41879e-12 1.03052e-11 0)             (3.31577e-12 1.04681e-11 0)             (2.26398e-12 1.04915e-11 0)             (2.26398e-12 1.04915e-11 0)             (1.27018e-12 1.03808e-11 0)             (3.35704e-13 1.01511e-11 0)             (-5.44392e-13 9.86921e-12 0)             (-5.44392e-13 9.86921e-12 0)             (-1.37278e-12 9.59005e-12 0)             (-2.15316e-12 9.30396e-12 0)             (-2.88605e-12 9.00948e-12 0)             (-3.57076e-12 8.72467e-12 0)             (-4.21069e-12 8.44088e-12 0)             (-4.80606e-12 8.15325e-12 0)             (-5.36004e-12 7.87158e-12 0)             (-5.87299e-12 7.58642e-12 0)             (-6.34856e-12 7.29989e-12 0)             (-6.78828e-12 7.0152e-12 0)             (-7.19565e-12 6.74187e-12 0)             (-7.56944e-12 6.47815e-12 0)             (-7.91527e-12 6.20794e-12 0)             (-8.23292e-12 5.94265e-12 0)             (-8.52513e-12 5.68363e-12 0)             (-9.03911e-12 5.18648e-12 0)             (-9.2645e-12 4.94623e-12 0)             (-9.47652e-12 4.71256e-12 0)             (-9.85772e-12 4.25951e-12 0)             (-1.00225e-11 4.03331e-12 0)             (-1.03062e-11 3.62819e-12 0)             (-1.0536e-11 3.22789e-12 0)             (-1.06321e-11 3.0501e-12 0)             (-1.07944e-11 2.71277e-12 0)             (-1.0919e-11 2.34822e-12 0)             (-1.10131e-11 2.02183e-12 0)             (-1.108e-11 1.74663e-12 0)             (-1.11383e-11 1.34825e-12 0)             (-1.11539e-11 1.09095e-12 0)             (-1.11479e-11 7.53834e-13 0)             (-1.11175e-11 4.68732e-13 0)             (-1.10437e-11 1.29555e-13 0)
          0.4             (3.29341e-12 1.03192e-12 0)             (3.29341e-12 1.03192e-12 0)             (4.65207e-12 1.47383e-12 0)             (4.65207e-12 1.47383e-12 0)             (4.65207e-12 1.47383e-12 0)             (4.99371e-12 2.79366e-12 0)             (4.99371e-12 2.79366e-12 0)             (5.50649e-12 4.58265e-12 0)             (5.50649e-12 4.58265e-12 0)             (5.65139e-12 4.88583e-12 0)             (5.65139e-12 4.88583e-12 0)             (5.55287e-12 5.80663e-12 0)             (5.55287e-12 5.80663e-12 0)             (5.55287e-12 5.80663e-12 0)             (5.31007e-12 6.93599e-12 0)             (5.31007e-12 6.93599e-12 0)             (5.01352e-12 8.2812e-12 0)             (5.01352e-12 8.2812e-12 0)             (4.72363e-12 9.68951e-12 0)             (4.72363e-12 9.68951e-12 0)             (4.4719e-12 1.10943e-11 0)             (4.4719e-12 1.10943e-11 0)             (4.26978e-12 1.24806e-11 0)             (4.26978e-12 1.24806e-11 0)             (4.11355e-12 1.38065e-11 0)             (3.99358e-12 1.50521e-11 0)             (3.99358e-12 1.50521e-11 0)             (3.9085e-12 1.61892e-11 0)             (3.9085e-12 1.61892e-11 0)             (3.84812e-12 1.72058e-11 0)             (3.84812e-12 1.72058e-11 0)             (3.81049e-12 1.80856e-11 0)             (3.78817e-12 1.88188e-11 0)             (3.78817e-12 1.88188e-11 0)             (3.78041e-12 1.94152e-11 0)             (3.78581e-12 1.98813e-11 0)             (3.78581e-12 1.98813e-11 0)             (3.80457e-12 2.02093e-11 0)             (3.83297e-12 2.04094e-11 0)             (3.83297e-12 2.04094e-11 0)             (3.86891e-12 2.04839e-11 0)             (3.90997e-12 2.04194e-11 0)             (3.95495e-12 2.02527e-11 0)             (3.95495e-12 2.02527e-11 0)             (3.99662e-12 2.00146e-11 0)             (4.02845e-12 1.97077e-11 0)             (4.05073e-12 1.93779e-11 0)             (4.06513e-12 1.90373e-11 0)             (4.07245e-12 1.86762e-11 0)             (4.07596e-12 1.82992e-11 0)             (4.07525e-12 1.79133e-11 0)             (4.07164e-12 1.75025e-11 0)             (4.06553e-12 1.7066e-11 0)             (4.05783e-12 1.6641e-11 0)             (4.04848e-12 1.61957e-11 0)             (4.03964e-12 1.57221e-11 0)             (4.02902e-12 1.52626e-11 0)             (4.01875e-12 1.47881e-11 0)             (4.00775e-12 1.43026e-11 0)             (3.98586e-12 1.33493e-11 0)             (3.97404e-12 1.28631e-11 0)             (3.95327e-12 1.23758e-11 0)             (3.89516e-12 1.14196e-11 0)             (3.8693e-12 1.09371e-11 0)             (3.82907e-12 1.0007e-11 0)             (3.79893e-12 9.08394e-12 0)             (3.78947e-12 8.64341e-12 0)             (3.77666e-12 7.81291e-12 0)             (3.77418e-12 6.94897e-12 0)             (3.78196e-12 6.13217e-12 0)             (3.79858e-12 5.36763e-12 0)             (3.83852e-12 4.31209e-12 0)             (3.87292e-12 3.65129e-12 0)             (3.93879e-12 2.74078e-12 0)             (4.01481e-12 1.90079e-12 0)             (4.13607e-12 8.66672e-13 0)
          0.5             (3.41778e-12 -1.7621e-12 0)             (3.41778e-12 -1.7621e-12 0)             (5.05302e-12 2.97013e-13 0)             (5.05302e-12 2.97013e-13 0)             (5.05302e-12 2.97013e-13 0)             (5.80867e-12 4.56303e-12 0)             (5.80867e-12 4.56303e-12 0)             (6.41086e-12 4.9624e-12 0)             (6.41086e-12 4.9624e-12 0)             (6.37766e-12 5.51586e-12 0)             (6.37766e-12 5.51586e-12 0)             (6.02014e-12 6.77213e-12 0)             (6.02014e-12 6.77213e-12 0)             (6.02014e-12 6.77213e-12 0)             (5.49765e-12 8.20133e-12 0)             (5.49765e-12 8.20133e-12 0)             (4.94981e-12 9.7744e-12 0)             (4.94981e-12 9.7744e-12 0)             (4.46128e-12 1.13107e-11 0)             (4.46128e-12 1.13107e-11 0)             (4.06837e-12 1.27162e-11 0)             (4.06837e-12 1.27162e-11 0)             (3.77402e-12 1.39607e-11 0)             (3.77402e-12 1.39607e-11 0)             (3.57452e-12 1.50049e-11 0)             (3.45587e-12 1.58485e-11 0)             (3.45587e-12 1.58485e-11 0)             (3.40207e-12 1.6501e-11 0)             (3.40207e-12 1.6501e-11 0)             (3.39693e-12 1.69739e-11 0)             (3.39693e-12 1.69739e-11 0)             (3.4276e-12 1.72954e-11 0)             (3.48157e-12 1.74944e-11 0)             (3.48157e-12 1.74944e-11 0)             (3.54837e-12 1.75939e-11 0)             (3.6163e-12 1.76114e-11 0)             (3.6163e-12 1.76114e-11 0)             (3.67636e-12 1.75634e-11 0)             (3.72143e-12 1.74577e-11 0)             (3.72143e-12 1.74577e-11 0)             (3.74607e-12 1.73121e-11 0)             (3.74872e-12 1.7122e-11 0)             (3.72611e-12 1.68946e-11 0)             (3.72611e-12 1.68946e-11 0)             (3.67966e-12 1.66483e-11 0)             (3.60717e-12 1.63615e-11 0)             (3.51131e-12 1.60589e-11 0)             (3.39253e-12 1.57415e-11 0)             (3.25382e-12 1.54017e-11 0)             (3.10109e-12 1.50472e-11 0)             (2.93517e-12 1.46796e-11 0)             (2.76163e-12 1.43088e-11 0)             (2.58014e-12 1.39318e-11 0)             (2.3949e-12 1.35536e-11 0)             (2.20655e-12 1.3161e-11 0)             (2.01814e-12 1.277e-11 0)             (1.8297e-12 1.23872e-11 0)             (1.64333e-12 1.20088e-11 0)             (1.45878e-12 1.16393e-11 0)             (1.10259e-12 1.08984e-11 0)             (9.30887e-13 1.05482e-11 0)             (7.50808e-13 1.02043e-11 0)             (3.78655e-13 9.50413e-12 0)             (2.05955e-13 9.15937e-12 0)             (-1.0534e-13 8.44875e-12 0)             (-3.70211e-13 7.7451e-12 0)             (-4.85283e-13 7.3921e-12 0)             (-6.85882e-13 6.75029e-12 0)             (-8.47252e-13 6.0753e-12 0)             (-9.69502e-13 5.4081e-12 0)             (-1.05686e-12 4.75663e-12 0)             (-1.13149e-12 3.85871e-12 0)             (-1.14757e-12 3.28149e-12 0)             (-1.12958e-12 2.49227e-12 0)             (-1.07262e-12 1.75925e-12 0)             (-9.45899e-13 8.68327e-13 0)
          0.6             (6.19955e-12 -1.91386e-12 0)             (6.19955e-12 -1.91386e-12 0)             (8.12855e-12 1.06785e-12 0)             (8.12855e-12 1.06785e-12 0)             (8.12855e-12 1.06785e-12 0)             (9.04265e-12 5.44278e-12 0)             (9.04265e-12 5.44278e-12 0)             (9.51676e-12 5.1656e-12 0)             (9.51676e-12 5.1656e-12 0)             (9.23676e-12 6.13804e-12 0)             (9.23676e-12 6.13804e-12 0)             (8.64441e-12 7.64202e-12 0)             (8.64441e-12 7.64202e-12 0)             (8.64441e-12 7.64202e-12 0)             (7.93468e-12 9.25989e-12 0)             (7.93468e-12 9.25989e-12 0)             (7.26114e-12 1.09306e-11 0)             (7.26114e-12 1.09306e-11 0)             (6.69745e-12 1.24721e-11 0)             (6.69745e-12 1.24721e-11 0)             (6.26188e-12 1.38059e-11 0)             (6.26188e-12 1.38059e-11 0)             (5.95037e-12 1.49401e-11 0)             (5.95037e-12 1.49401e-11 0)             (5.74424e-12 1.58716e-11 0)             (5.6199e-12 1.66155e-11 0)             (5.6199e-12 1.66155e-11 0)             (5.55123e-12 1.71935e-11 0)             (5.55123e-12 1.71935e-11 0)             (5.51732e-12 1.7633e-11 0)             (5.51732e-12 1.7633e-11 0)             (5.50242e-12 1.79542e-11 0)             (5.49019e-12 1.81778e-11 0)             (5.49019e-12 1.81778e-11 0)             (5.46752e-12 1.83219e-11 0)             (5.42384e-12 1.8394e-11 0)             (5.42384e-12 1.8394e-11 0)             (5.35321e-12 1.84045e-11 0)             (5.25216e-12 1.83678e-11 0)             (5.25216e-12 1.83678e-11 0)             (5.11855e-12 1.82804e-11 0)             (4.95365e-12 1.81448e-11 0)             (4.75813e-12 1.7975e-11 0)             (4.75813e-12 1.7975e-11 0)             (4.53538e-12 1.77714e-11 0)             (4.28632e-12 1.75381e-11 0)             (4.01654e-12 1.72724e-11 0)             (3.72809e-12 1.69861e-11 0)             (3.42488e-12 1.66787e-11 0)             (3.11119e-12 1.63485e-11 0)             (2.79059e-12 1.60042e-11 0)             (2.46626e-12 1.5638e-11 0)             (2.14009e-12 1.52664e-11 0)             (1.81618e-12 1.48868e-11 0)             (1.49399e-12 1.44937e-11 0)             (1.17813e-12 1.40917e-11 0)             (8.67772e-13 1.36993e-11 0)             (5.65659e-13 1.33006e-11 0)             (2.7217e-13 1.28891e-11 0)             (-2.85508e-13 1.20852e-11 0)             (-5.48813e-13 1.16762e-11 0)             (-8.18797e-13 1.12769e-11 0)             (-1.36543e-12 1.0464e-11 0)             (-1.61702e-12 1.00484e-11 0)             (-2.06839e-12 9.24514e-12 0)             (-2.45536e-12 8.44429e-12 0)             (-2.62444e-12 8.06176e-12 0)             (-2.92086e-12 7.30573e-12 0)             (-3.16165e-12 6.55013e-12 0)             (-3.35026e-12 5.81057e-12 0)             (-3.49141e-12 5.11021e-12 0)             (-3.62654e-12 4.12153e-12 0)             (-3.67158e-12 3.52729e-12 0)             (-3.67893e-12 2.65937e-12 0)             (-3.6301e-12 1.84848e-12 0)             (-3.49106e-12 8.74913e-13 0)
          0.7             (9.39349e-12 -1.66552e-12 0)             (9.39349e-12 -1.66552e-12 0)             (1.1604e-11 2.11381e-12 0)             (1.1604e-11 2.11381e-12 0)             (1.1604e-11 2.11381e-12 0)             (1.25846e-11 6.32773e-12 0)             (1.25846e-11 6.32773e-12 0)             (1.28226e-11 5.72282e-12 0)             (1.28226e-11 5.72282e-12 0)             (1.22322e-11 7.25522e-12 0)             (1.22322e-11 7.25522e-12 0)             (1.14119e-11 9.08112e-12 0)             (1.14119e-11 9.08112e-12 0)             (1.14119e-11 9.08112e-12 0)             (1.05759e-11 1.09389e-11 0)             (1.05759e-11 1.09389e-11 0)             (9.87244e-12 1.27311e-11 0)             (9.87244e-12 1.27311e-11 0)             (9.34526e-12 1.42992e-11 0)             (9.34526e-12 1.42992e-11 0)             (8.98473e-12 1.56135e-11 0)             (8.98473e-12 1.56135e-11 0)             (8.76359e-12 1.66995e-11 0)             (8.76359e-12 1.66995e-11 0)             (8.64196e-12 1.75811e-11 0)             (8.58056e-12 1.82923e-11 0)             (8.58056e-12 1.82923e-11 0)             (8.54586e-12 1.88582e-11 0)             (8.54586e-12 1.88582e-11 0)             (8.5158e-12 1.92995e-11 0)             (8.5158e-12 1.92995e-11 0)             (8.47357e-12 1.96418e-11 0)             (8.40281e-12 1.99003e-11 0)             (8.40281e-12 1.99003e-11 0)             (8.29568e-12 2.00821e-11 0)             (8.14433e-12 2.01964e-11 0)             (8.14433e-12 2.01964e-11 0)             (7.94956e-12 2.02529e-11 0)             (7.71014e-12 2.02515e-11 0)             (7.71014e-12 2.02515e-11 0)             (7.42873e-12 2.019e-11 0)             (7.10931e-12 2.00876e-11 0)             (6.75521e-12 1.99383e-11 0)             (6.75521e-12 1.99383e-11 0)             (6.37234e-12 1.97381e-11 0)             (5.9643e-12 1.95052e-11 0)             (5.53829e-12 1.92424e-11 0)             (5.10152e-12 1.89478e-11 0)             (4.65614e-12 1.86183e-11 0)             (4.20883e-12 1.82628e-11 0)             (3.7628e-12 1.78932e-11 0)             (3.31931e-12 1.75059e-11 0)             (2.8816e-12 1.70979e-11 0)             (2.45262e-12 1.66731e-11 0)             (2.03165e-12 1.62467e-11 0)             (1.62403e-12 1.58018e-11 0)             (1.22854e-12 1.53437e-11 0)             (8.4702e-13 1.48902e-11 0)             (4.81009e-13 1.44256e-11 0)             (-2.05549e-13 1.3461e-11 0)             (-5.24502e-13 1.2991e-11 0)             (-8.49042e-13 1.25181e-11 0)             (-1.50913e-12 1.15698e-11 0)             (-1.81248e-12 1.11053e-11 0)             (-2.35346e-12 1.01741e-11 0)             (-2.8149e-12 9.27797e-12 0)             (-3.01525e-12 8.83087e-12 0)             (-3.36543e-12 7.98663e-12 0)             (-3.64801e-12 7.1406e-12 0)             (-3.86887e-12 6.32162e-12 0)             (-4.03502e-12 5.55491e-12 0)             (-4.19004e-12 4.48014e-12 0)             (-4.24167e-12 3.79992e-12 0)             (-4.24959e-12 2.85865e-12 0)             (-4.19219e-12 1.98239e-12 0)             (-4.02755e-12 9.3597e-13 0)
          0.8             (1.23764e-11 -1.1992e-12 0)             (1.23764e-11 -1.1992e-12 0)             (1.48407e-11 3.17106e-12 0)             (1.48407e-11 3.17106e-12 0)             (1.48407e-11 3.17106e-12 0)             (1.5791e-11 7.08349e-12 0)             (1.5791e-11 7.08349e-12 0)             (1.56657e-11 6.43417e-12 0)             (1.56657e-11 6.43417e-12 0)             (1.47242e-11 8.49509e-12 0)             (1.47242e-11 8.49509e-12 0)             (1.37045e-11 1.05471e-11 0)             (1.37045e-11 1.05471e-11 0)             (1.37045e-11 1.05471e-11 0)             (1.28172e-11 1.24974e-11 0)             (1.28172e-11 1.24974e-11 0)             (1.21805e-11 1.42778e-11 0)             (1.21805e-11 1.42778e-11 0)             (1.17902e-11 1.57803e-11 0)             (1.17902e-11 1.57803e-11 0)             (1.15955e-11 1.70123e-11 0)             (1.15955e-11 1.70123e-11 0)             (1.15344e-11 1.80314e-11 0)             (1.15344e-11 1.80314e-11 0)             (1.15434e-11 1.88784e-11 0)             (1.15721e-11 1.95952e-11 0)             (1.15721e-11 1.95952e-11 0)             (1.1582e-11 2.01995e-11 0)             (1.1582e-11 2.01995e-11 0)             (1.15501e-11 2.07173e-11 0)             (1.15501e-11 2.07173e-11 0)             (1.14636e-11 2.11679e-11 0)             (1.13125e-11 2.15526e-11 0)             (1.13125e-11 2.15526e-11 0)             (1.1094e-11 2.18791e-11 0)             (1.08077e-11 2.21494e-11 0)             (1.08077e-11 2.21494e-11 0)             (1.04584e-11 2.23711e-11 0)             (1.00487e-11 2.25483e-11 0)             (1.00487e-11 2.25483e-11 0)             (9.58729e-12 2.26803e-11 0)             (9.07992e-12 2.27655e-11 0)             (8.53517e-12 2.27977e-11 0)             (8.53517e-12 2.27977e-11 0)             (7.96071e-12 2.27779e-11 0)             (7.36375e-12 2.27085e-11 0)             (6.75427e-12 2.25946e-11 0)             (6.14188e-12 2.2428e-11 0)             (5.53025e-12 2.21896e-11 0)             (4.92668e-12 2.18847e-11 0)             (4.3361e-12 2.15177e-11 0)             (3.76038e-12 2.10953e-11 0)             (3.20109e-12 2.0638e-11 0)             (2.66249e-12 2.01343e-11 0)             (2.14416e-12 1.95891e-11 0)             (1.64812e-12 1.90411e-11 0)             (1.17591e-12 1.84707e-11 0)             (7.2471e-13 1.7879e-11 0)             (2.97228e-13 1.72873e-11 0)             (-4.90622e-13 1.61135e-11 0)             (-8.51699e-13 1.55219e-11 0)             (-1.21795e-12 1.49294e-11 0)             (-1.96822e-12 1.37683e-11 0)             (-2.31042e-12 1.31943e-11 0)             (-2.91983e-12 1.20684e-11 0)             (-3.43408e-12 1.09631e-11 0)             (-3.65647e-12 1.04444e-11 0)             (-4.04242e-12 9.41436e-12 0)             (-4.35014e-12 8.41143e-12 0)             (-4.58868e-12 7.43375e-12 0)             (-4.76399e-12 6.52085e-12 0)             (-4.92383e-12 5.2159e-12 0)             (-4.97084e-12 4.42298e-12 0)             (-4.96327e-12 3.30328e-12 0)             (-4.88307e-12 2.26927e-12 0)             (-4.68083e-12 1.04204e-12 0)