# Probe 0 (15.31 -0.61 0)
# Probe 1 (15.31 -0.6 0)
# Probe 2 (15.31 -0.59 0)
# Probe 3 (15.31 -0.58 0)
# Probe 4 (15.31 -0.57 0)
# Probe 5 (15.31 -0.56 0)
# Probe 6 (15.31 -0.55 0)
# Probe 7 (15.31 -0.54 0)
# Probe 8 (15.31 -0.53 0)
# Probe 9 (15.31 -0.52 0)
# Probe 10 (15.31 -0.51 0)
# Probe 11 (15.31 -0.5 0)
# Probe 12 (15.31 -0.49 0)
# Probe 13 (15.31 -0.48 0)
# Probe 14 (15.31 -0.47 0)
# Probe 15 (15.31 -0.46 0)
# Probe 16 (15.31 -0.45 0)
# Probe 17 (15.31 -0.44 0)
# Probe 18 (15.31 -0.43 0)
# Probe 19 (15.31 -0.42 0)
# Probe 20 (15.31 -0.41 0)
# Probe 21 (15.31 -0.4 0)
# Probe 22 (15.31 -0.39 0)
# Probe 23 (15.31 -0.38 0)
# Probe 24 (15.31 -0.37 0)
# Probe 25 (15.31 -0.36 0)
# Probe 26 (15.31 -0.35 0)
# Probe 27 (15.31 -0.34 0)
# Probe 28 (15.31 -0.33 0)
# Probe 29 (15.31 -0.32 0)
# Probe 30 (15.31 -0.31 0)
# Probe 31 (15.31 -0.3 0)
# Probe 32 (15.31 -0.29 0)
# Probe 33 (15.31 -0.28 0)
# Probe 34 (15.31 -0.27 0)
# Probe 35 (15.31 -0.26 0)
# Probe 36 (15.31 -0.25 0)
# Probe 37 (15.31 -0.24 0)
# Probe 38 (15.31 -0.23 0)
# Probe 39 (15.31 -0.22 0)
# Probe 40 (15.31 -0.21 0)
# Probe 41 (15.31 -0.2 0)
# Probe 42 (15.31 -0.19 0)
# Probe 43 (15.31 -0.18 0)
# Probe 44 (15.31 -0.17 0)
# Probe 45 (15.31 -0.16 0)
# Probe 46 (15.31 -0.15 0)
# Probe 47 (15.31 -0.14 0)
# Probe 48 (15.31 -0.13 0)
# Probe 49 (15.31 -0.12 0)
# Probe 50 (15.31 -0.11 0)
# Probe 51 (15.31 -0.1 0)
# Probe 52 (15.31 -0.09 0)
# Probe 53 (15.31 -0.08 0)
# Probe 54 (15.31 -0.07 0)
# Probe 55 (15.31 -0.06 0)
# Probe 56 (15.31 -0.05 0)
# Probe 57 (15.31 -0.04 0)
# Probe 58 (15.31 -0.03 0)
# Probe 59 (15.31 -0.02 0)
# Probe 60 (15.31 -0.01 0)
# Probe 61 (15.31 0 0)
# Probe 62 (15.31 0.01 0)
# Probe 63 (15.31 0.02 0)
# Probe 64 (15.31 0.03 0)
# Probe 65 (15.31 0.04 0)
# Probe 66 (15.31 0.05 0)
# Probe 67 (15.31 0.06 0)
# Probe 68 (15.31 0.07 0)
# Probe 69 (15.31 0.08 0)
# Probe 70 (15.31 0.09 0)
# Probe 71 (15.31 0.1 0)
# Probe 72 (15.31 0.11 0)
# Probe 73 (15.31 0.12 0)
# Probe 74 (15.31 0.13 0)
# Probe 75 (15.31 0.14 0)
#       Probe             0             1             2             3             4             5             6             7             8             9            10            11            12            13            14            15            16            17            18            19            20            21            22            23            24            25            26            27            28            29            30            31            32            33            34            35            36            37            38            39            40            41            42            43            44            45            46            47            48            49            50            51            52            53            54            55            56            57            58            59            60            61            62            63            64            65            66            67            68            69            70            71            72            73            74            75
#        Time
          0.1             (7.39953e-12 -2.29036e-12 0)             (6.83802e-12 -4.2093e-12 0)             (6.83802e-12 -4.2093e-12 0)             (6.49853e-12 -3.5864e-12 0)             (6.49853e-12 -3.5864e-12 0)             (6.28779e-12 -2.97717e-12 0)             (6.20114e-12 -2.24369e-12 0)             (6.20114e-12 -2.24369e-12 0)             (6.21764e-12 -1.50985e-12 0)             (6.31623e-12 -8.71752e-13 0)             (6.31623e-12 -8.71752e-13 0)             (6.47851e-12 -4.16422e-13 0)             (6.47851e-12 -4.16422e-13 0)             (6.68469e-12 -1.54743e-13 0)             (6.91906e-12 -8.26574e-14 0)             (6.91906e-12 -8.26574e-14 0)             (7.16629e-12 -2.04357e-13 0)             (7.41098e-12 -4.94834e-13 0)             (7.64158e-12 -9.18965e-13 0)             (7.64158e-12 -9.18965e-13 0)             (7.84841e-12 -1.45808e-12 0)             (8.02732e-12 -2.07612e-12 0)             (8.02732e-12 -2.07612e-12 0)             (8.17241e-12 -2.73966e-12 0)             (8.28129e-12 -3.43501e-12 0)             (8.35351e-12 -4.14389e-12 0)             (8.35351e-12 -4.14389e-12 0)             (8.38701e-12 -4.83761e-12 0)             (8.38204e-12 -5.50857e-12 0)             (8.33933e-12 -6.14894e-12 0)             (8.26048e-12 -6.72148e-12 0)             (8.26048e-12 -6.72148e-12 0)             (8.15016e-12 -7.22795e-12 0)             (8.01214e-12 -7.68029e-12 0)             (7.84819e-12 -8.10531e-12 0)             (7.65962e-12 -8.52773e-12 0)             (7.44996e-12 -8.93394e-12 0)             (7.44996e-12 -8.93394e-12 0)             (7.22276e-12 -9.31445e-12 0)             (6.98157e-12 -9.66067e-12 0)             (6.72925e-12 -9.96838e-12 0)             (6.46904e-12 -1.02357e-11 0)             (6.20156e-12 -1.04646e-11 0)             (5.92812e-12 -1.06509e-11 0)             (5.64995e-12 -1.08019e-11 0)             (5.36777e-12 -1.09229e-11 0)             (5.0836e-12 -1.1e-11 0)             (4.7989e-12 -1.10392e-11 0)             (4.51598e-12 -1.10422e-11 0)             (4.23494e-12 -1.10087e-11 0)             (3.9565e-12 -1.09463e-11 0)             (3.68212e-12 -1.08511e-11 0)             (3.4115e-12 -1.07253e-11 0)             (2.8868e-12 -1.03983e-11 0)             (2.6342e-12 -1.0217e-11 0)             (2.39242e-12 -1.00308e-11 0)             (2.16197e-12 -9.83609e-12 0)             (1.94384e-12 -9.63461e-12 0)             (1.54438e-12 -9.17962e-12 0)             (1.36241e-12 -8.92331e-12 0)             (1.19243e-12 -8.65032e-12 0)             (1.03395e-12 -8.36844e-12 0)             (7.496e-13 -7.77824e-12 0)             (6.23303e-13 -7.46483e-12 0)             (3.98803e-13 -6.84705e-12 0)             (3.00539e-13 -6.52714e-12 0)             (2.09371e-13 -6.2098e-12 0)             (5.05018e-14 -5.582e-12 0)             (-7.97972e-14 -4.92409e-12 0)             (-1.34301e-13 -4.59774e-12 0)             (-2.24737e-13 -3.94436e-12 0)             (-2.61298e-13 -3.6172e-12 0)             (-3.16773e-13 -2.94442e-12 0)             (-3.49445e-13 -2.23553e-12 0)             (-3.61896e-13 -1.54441e-12 0)             (-3.53611e-13 -8.30119e-13 0)
          0.2             (-7.74324e-12 2.5064e-13 0)             (-7.3046e-12 2.54814e-13 0)             (-7.3046e-12 2.54814e-13 0)             (-6.83326e-12 -2.9216e-13 0)             (-6.83326e-12 -2.9216e-13 0)             (-6.54858e-12 -8.30685e-13 0)             (-6.4051e-12 -1.26434e-12 0)             (-6.4051e-12 -1.26434e-12 0)             (-6.38648e-12 -1.60909e-12 0)             (-6.46483e-12 -1.89155e-12 0)             (-6.46483e-12 -1.89155e-12 0)             (-6.60818e-12 -2.13939e-12 0)             (-6.60818e-12 -2.13939e-12 0)             (-6.7896e-12 -2.35783e-12 0)             (-6.9836e-12 -2.52932e-12 0)             (-6.9836e-12 -2.52932e-12 0)             (-7.16418e-12 -2.65018e-12 0)             (-7.31267e-12 -2.73309e-12 0)             (-7.41598e-12 -2.7789e-12 0)             (-7.41598e-12 -2.7789e-12 0)             (-7.4633e-12 -2.80605e-12 0)             (-7.44754e-12 -2.83015e-12 0)             (-7.44754e-12 -2.83015e-12 0)             (-7.3669e-12 -2.8606e-12 0)             (-7.21972e-12 -2.91249e-12 0)             (-7.0044e-12 -2.98747e-12 0)             (-7.0044e-12 -2.98747e-12 0)             (-6.72461e-12 -3.0865e-12 0)             (-6.382e-12 -3.21728e-12 0)             (-5.98167e-12 -3.36229e-12 0)             (-5.52909e-12 -3.50421e-12 0)             (-5.52909e-12 -3.50421e-12 0)             (-5.02904e-12 -3.64187e-12 0)             (-4.48514e-12 -3.75438e-12 0)             (-3.90106e-12 -3.84334e-12 0)             (-3.28317e-12 -3.92913e-12 0)             (-2.63694e-12 -4.02124e-12 0)             (-2.63694e-12 -4.02124e-12 0)             (-1.96692e-12 -4.12125e-12 0)             (-1.27839e-12 -4.20769e-12 0)             (-5.74594e-13 -4.25733e-12 0)             (1.42244e-13 -4.27565e-12 0)             (8.69587e-13 -4.26468e-12 0)             (1.60224e-12 -4.23064e-12 0)             (2.33708e-12 -4.19279e-12 0)             (3.07226e-12 -4.14152e-12 0)             (3.80435e-12 -4.07321e-12 0)             (4.53092e-12 -4.0064e-12 0)             (5.25007e-12 -3.92772e-12 0)             (5.95972e-12 -3.82692e-12 0)             (6.6573e-12 -3.72753e-12 0)             (7.34285e-12 -3.6265e-12 0)             (8.01302e-12 -3.51335e-12 0)             (9.30324e-12 -3.26224e-12 0)             (9.92061e-12 -3.14487e-12 0)             (1.05191e-11 -3.02562e-12 0)             (1.10971e-11 -2.89831e-12 0)             (1.16538e-11 -2.77261e-12 0)             (1.27028e-11 -2.52009e-12 0)             (1.31949e-11 -2.40175e-12 0)             (1.36643e-11 -2.28071e-12 0)             (1.41109e-11 -2.16726e-12 0)             (1.49363e-11 -1.9328e-12 0)             (1.53158e-11 -1.82289e-12 0)             (1.60066e-11 -1.59763e-12 0)             (1.63194e-11 -1.49291e-12 0)             (1.66104e-11 -1.38304e-12 0)             (1.71295e-11 -1.1676e-12 0)             (1.75682e-11 -9.665e-13 0)             (1.77579e-11 -8.55763e-13 0)             (1.8082e-11 -6.3404e-13 0)             (1.82181e-11 -5.27764e-13 0)             (1.844e-11 -3.00945e-13 0)             (1.85979e-11 -6.15141e-14 0)             (1.86975e-11 1.91507e-13 0)             (1.8743e-11 4.32777e-13 0)
          0.3             (-2.06267e-11 -2.59374e-12 0)             (-2.09268e-11 -4.67857e-12 0)             (-2.09268e-11 -4.67857e-12 0)             (-2.09382e-11 -3.95553e-12 0)             (-2.09382e-11 -3.95553e-12 0)             (-2.09091e-11 -3.42066e-12 0)             (-2.07837e-11 -2.82376e-12 0)             (-2.07837e-11 -2.82376e-12 0)             (-2.05705e-11 -2.33667e-12 0)             (-2.02681e-11 -2.01697e-12 0)             (-2.02681e-11 -2.01697e-12 0)             (-1.98859e-11 -1.90814e-12 0)             (-1.98859e-11 -1.90814e-12 0)             (-1.94372e-11 -1.99314e-12 0)             (-1.8931e-11 -2.23993e-12 0)             (-1.8931e-11 -2.23993e-12 0)             (-1.83723e-11 -2.63604e-12 0)             (-1.77677e-11 -3.1252e-12 0)             (-1.71233e-11 -3.67882e-12 0)             (-1.71233e-11 -3.67882e-12 0)             (-1.64449e-11 -4.29677e-12 0)             (-1.5738e-11 -4.96551e-12 0)             (-1.5738e-11 -4.96551e-12 0)             (-1.50089e-11 -5.68217e-12 0)             (-1.42642e-11 -6.4243e-12 0)             (-1.35084e-11 -7.17011e-12 0)             (-1.35084e-11 -7.17011e-12 0)             (-1.27481e-11 -7.90636e-12 0)             (-1.19876e-11 -8.62208e-12 0)             (-1.12322e-11 -9.31246e-12 0)             (-1.04857e-11 -9.9643e-12 0)             (-1.04857e-11 -9.9643e-12 0)             (-9.75087e-12 -1.05669e-11 0)             (-9.02881e-12 -1.11215e-11 0)             (-8.32153e-12 -1.16265e-11 0)             (-7.63133e-12 -1.20891e-11 0)             (-6.95554e-12 -1.24887e-11 0)             (-6.95554e-12 -1.24887e-11 0)             (-6.29823e-12 -1.28301e-11 0)             (-5.6612e-12 -1.31317e-11 0)             (-5.04299e-12 -1.3384e-11 0)             (-4.44423e-12 -1.35959e-11 0)             (-3.86379e-12 -1.37704e-11 0)             (-3.30058e-12 -1.39055e-11 0)             (-2.75216e-12 -1.40145e-11 0)             (-2.21422e-12 -1.41044e-11 0)             (-1.69038e-12 -1.41771e-11 0)             (-1.17832e-12 -1.42392e-11 0)             (-6.76046e-13 -1.42878e-11 0)             (-1.8485e-13 -1.43038e-11 0)             (2.95705e-13 -1.42472e-11 0)             (7.61337e-13 -1.41318e-11 0)             (1.21265e-12 -1.39824e-11 0)             (2.0703e-12 -1.35354e-11 0)             (2.47519e-12 -1.32571e-11 0)             (2.8647e-12 -1.2935e-11 0)             (3.23862e-12 -1.25904e-11 0)             (3.59682e-12 -1.22304e-11 0)             (4.26868e-12 -1.14362e-11 0)             (4.58115e-12 -1.10341e-11 0)             (4.87993e-12 -1.06104e-11 0)             (5.16355e-12 -1.01742e-11 0)             (5.69048e-12 -9.3114e-12 0)             (5.93422e-12 -8.87393e-12 0)             (6.37988e-12 -7.97227e-12 0)             (6.58291e-12 -7.52492e-12 0)             (6.77178e-12 -7.08304e-12 0)             (7.11216e-12 -6.17732e-12 0)             (7.40348e-12 -5.27769e-12 0)             (7.53207e-12 -4.83052e-12 0)             (7.75502e-12 -3.95238e-12 0)             (7.85102e-12 -3.51307e-12 0)             (8.01155e-12 -2.65612e-12 0)             (8.13411e-12 -1.79456e-12 0)             (8.22098e-12 -9.58582e-13 0)             (8.2732e-12 -8.09972e-14 0)
          0.4             (-1.85291e-11 -5.69613e-13 0)             (-1.91986e-11 -1.35841e-12 0)             (-1.91986e-11 -1.35841e-12 0)             (-1.92648e-11 -2.03107e-12 0)             (-1.92648e-11 -2.03107e-12 0)             (-1.91022e-11 -2.85888e-12 0)             (-1.86557e-11 -3.60787e-12 0)             (-1.86557e-11 -3.60787e-12 0)             (-1.79755e-11 -4.32886e-12 0)             (-1.71064e-11 -5.00482e-12 0)             (-1.71064e-11 -5.00482e-12 0)             (-1.60924e-11 -5.64668e-12 0)             (-1.60924e-11 -5.64668e-12 0)             (-1.49789e-11 -6.2294e-12 0)             (-1.38062e-11 -6.72047e-12 0)             (-1.38062e-11 -6.72047e-12 0)             (-1.26056e-11 -7.13834e-12 0)             (-1.14053e-11 -7.47827e-12 0)             (-1.02253e-11 -7.73689e-12 0)             (-1.02253e-11 -7.73689e-12 0)             (-9.08132e-12 -7.94101e-12 0)             (-7.98256e-12 -8.10797e-12 0)             (-7.98256e-12 -8.10797e-12 0)             (-6.93772e-12 -8.25265e-12 0)             (-5.94975e-12 -8.3874e-12 0)             (-5.0214e-12 -8.49662e-12 0)             (-5.0214e-12 -8.49662e-12 0)             (-4.15617e-12 -8.55128e-12 0)             (-3.35604e-12 -8.58306e-12 0)             (-2.62006e-12 -8.60826e-12 0)             (-1.94729e-12 -8.63075e-12 0)             (-1.94729e-12 -8.63075e-12 0)             (-1.33895e-12 -8.65949e-12 0)             (-7.92718e-13 -8.69192e-12 0)             (-3.03199e-13 -8.72376e-12 0)             (1.34651e-13 -8.75227e-12 0)             (5.27685e-13 -8.78031e-12 0)             (5.27685e-13 -8.78031e-12 0)             (8.78005e-13 -8.79539e-12 0)             (1.19082e-12 -8.79665e-12 0)             (1.46939e-12 -8.78473e-12 0)             (1.71773e-12 -8.75834e-12 0)             (1.94028e-12 -8.72685e-12 0)             (2.14005e-12 -8.68699e-12 0)             (2.31958e-12 -8.62837e-12 0)             (2.48395e-12 -8.56537e-12 0)             (2.63641e-12 -8.50462e-12 0)             (2.77779e-12 -8.42961e-12 0)             (2.91036e-12 -8.35819e-12 0)             (3.035e-12 -8.28822e-12 0)             (3.15293e-12 -8.2044e-12 0)             (3.26477e-12 -8.11846e-12 0)             (3.37322e-12 -8.02655e-12 0)             (3.57817e-12 -7.80235e-12 0)             (3.67611e-12 -7.68475e-12 0)             (3.77054e-12 -7.54714e-12 0)             (3.86381e-12 -7.40394e-12 0)             (3.95367e-12 -7.24994e-12 0)             (4.12737e-12 -6.90413e-12 0)             (4.21036e-12 -6.71238e-12 0)             (4.29153e-12 -6.51349e-12 0)             (4.37036e-12 -6.30408e-12 0)             (4.52715e-12 -5.84915e-12 0)             (4.60411e-12 -5.62364e-12 0)             (4.74855e-12 -5.14247e-12 0)             (4.81599e-12 -4.8955e-12 0)             (4.87951e-12 -4.64535e-12 0)             (4.99701e-12 -4.12941e-12 0)             (5.10138e-12 -3.60085e-12 0)             (5.14864e-12 -3.33421e-12 0)             (5.23248e-12 -2.78564e-12 0)             (5.26966e-12 -2.50667e-12 0)             (5.33168e-12 -1.97423e-12 0)             (5.38191e-12 -1.3932e-12 0)             (5.41742e-12 -8.40497e-13 0)             (5.44062e-12 -2.59351e-13 0)
          0.5             (-6.94731e-12 6.91244e-13 0)             (-6.82156e-12 3.11649e-13 0)             (-6.82156e-12 3.11649e-13 0)             (-6.65219e-12 -1.56959e-12 0)             (-6.65219e-12 -1.56959e-12 0)             (-6.62951e-12 -3.13378e-12 0)             (-6.65659e-12 -4.53974e-12 0)             (-6.65659e-12 -4.53974e-12 0)             (-6.75424e-12 -5.69313e-12 0)             (-6.91101e-12 -6.54953e-12 0)             (-6.91101e-12 -6.54953e-12 0)             (-7.11188e-12 -7.12002e-12 0)             (-7.11188e-12 -7.12002e-12 0)             (-7.34498e-12 -7.41052e-12 0)             (-7.5964e-12 -7.45526e-12 0)             (-7.5964e-12 -7.45526e-12 0)             (-7.85376e-12 -7.30233e-12 0)             (-8.1067e-12 -6.99027e-12 0)             (-8.34682e-12 -6.56591e-12 0)             (-8.34682e-12 -6.56591e-12 0)             (-8.56973e-12 -6.07761e-12 0)             (-8.76892e-12 -5.55136e-12 0)             (-8.76892e-12 -5.55136e-12 0)             (-8.94365e-12 -5.00583e-12 0)             (-9.09349e-12 -4.46144e-12 0)             (-9.21782e-12 -3.9197e-12 0)             (-9.21782e-12 -3.9197e-12 0)             (-9.31707e-12 -3.3814e-12 0)             (-9.39302e-12 -2.84986e-12 0)             (-9.44606e-12 -2.33417e-12 0)             (-9.47993e-12 -1.84371e-12 0)             (-9.47993e-12 -1.84371e-12 0)             (-9.49623e-12 -1.38339e-12 0)             (-9.49792e-12 -9.54543e-13 0)             (-9.48859e-12 -5.64261e-13 0)             (-9.47047e-12 -2.17239e-13 0)             (-9.44582e-12 1.00611e-13 0)             (-9.44582e-12 1.00611e-13 0)             (-9.41561e-12 3.89495e-13 0)             (-9.38341e-12 6.34207e-13 0)             (-9.35094e-12 8.53093e-13 0)             (-9.31876e-12 1.0537e-12 0)             (-9.28668e-12 1.23027e-12 0)             (-9.25701e-12 1.39281e-12 0)             (-9.22766e-12 1.54543e-12 0)             (-9.2001e-12 1.66817e-12 0)             (-9.17592e-12 1.77007e-12 0)             (-9.15682e-12 1.85649e-12 0)             (-9.14181e-12 1.91566e-12 0)             (-9.13146e-12 1.96263e-12 0)             (-9.12695e-12 1.98546e-12 0)             (-9.12727e-12 1.99005e-12 0)             (-9.13139e-12 1.9803e-12 0)             (-9.15305e-12 1.91969e-12 0)             (-9.16966e-12 1.87035e-12 0)             (-9.19103e-12 1.80947e-12 0)             (-9.21525e-12 1.73558e-12 0)             (-9.24455e-12 1.66103e-12 0)             (-9.31153e-12 1.48436e-12 0)             (-9.34846e-12 1.3838e-12 0)             (-9.38867e-12 1.29496e-12 0)             (-9.43164e-12 1.18938e-12 0)             (-9.50886e-12 9.68936e-13 0)             (-9.54555e-12 8.52934e-13 0)             (-9.62367e-12 6.31971e-13 0)             (-9.66509e-12 5.09789e-13 0)             (-9.70713e-12 4.02641e-13 0)             (-9.79357e-12 1.92408e-13 0)             (-9.88007e-12 -1.91611e-14 0)             (-9.9232e-12 -1.02927e-13 0)             (-1.00088e-11 -2.76361e-13 0)             (-1.00504e-11 -3.47313e-13 0)             (-1.01314e-11 -4.87528e-13 0)             (-1.02079e-11 -5.81713e-13 0)             (-1.0279e-11 -6.40056e-13 0)             (-1.03423e-11 -7.60675e-13 0)
          0.6             (-7.19389e-12 3.70398e-13 0)             (-6.92059e-12 -5.12984e-13 0)             (-6.92059e-12 -5.12984e-13 0)             (-6.51785e-12 -2.59044e-12 0)             (-6.51785e-12 -2.59044e-12 0)             (-6.2985e-12 -4.30463e-12 0)             (-6.18889e-12 -6.00918e-12 0)             (-6.18889e-12 -6.00918e-12 0)             (-6.20493e-12 -7.52198e-12 0)             (-6.32289e-12 -8.78849e-12 0)             (-6.32289e-12 -8.78849e-12 0)             (-6.52438e-12 -9.78255e-12 0)             (-6.52438e-12 -9.78255e-12 0)             (-6.78909e-12 -1.05041e-11 0)             (-7.09766e-12 -1.09487e-11 0)             (-7.09766e-12 -1.09487e-11 0)             (-7.43e-12 -1.1146e-11 0)             (-7.76863e-12 -1.11494e-11 0)             (-8.10141e-12 -1.09968e-11 0)             (-8.10141e-12 -1.09968e-11 0)             (-8.41992e-12 -1.07468e-11 0)             (-8.71332e-12 -1.04356e-11 0)             (-8.71332e-12 -1.04356e-11 0)             (-8.97788e-12 -1.00748e-11 0)             (-9.20803e-12 -9.6952e-12 0)             (-9.40105e-12 -9.30481e-12 0)             (-9.40105e-12 -9.30481e-12 0)             (-9.55767e-12 -8.90561e-12 0)             (-9.67884e-12 -8.51766e-12 0)             (-9.76916e-12 -8.14537e-12 0)             (-9.82957e-12 -7.79041e-12 0)             (-9.82957e-12 -7.79041e-12 0)             (-9.86453e-12 -7.46559e-12 0)             (-9.8752e-12 -7.16381e-12 0)             (-9.86749e-12 -6.87844e-12 0)             (-9.84299e-12 -6.6269e-12 0)             (-9.80784e-12 -6.39556e-12 0)             (-9.80784e-12 -6.39556e-12 0)             (-9.76389e-12 -6.16578e-12 0)             (-9.71512e-12 -5.95738e-12 0)             (-9.66504e-12 -5.76515e-12 0)             (-9.61575e-12 -5.5833e-12 0)             (-9.56995e-12 -5.43119e-12 0)             (-9.53105e-12 -5.27166e-12 0)             (-9.50173e-12 -5.11562e-12 0)             (-9.47689e-12 -4.98145e-12 0)             (-9.45591e-12 -4.85646e-12 0)             (-9.43889e-12 -4.74893e-12 0)             (-9.42713e-12 -4.65022e-12 0)             (-9.4192e-12 -4.56326e-12 0)             (-9.41733e-12 -4.49706e-12 0)             (-9.42301e-12 -4.4342e-12 0)             (-9.43476e-12 -4.37019e-12 0)             (-9.47661e-12 -4.2397e-12 0)             (-9.50736e-12 -4.17977e-12 0)             (-9.5422e-12 -4.11542e-12 0)             (-9.58337e-12 -4.04361e-12 0)             (-9.62899e-12 -3.9657e-12 0)             (-9.72835e-12 -3.79523e-12 0)             (-9.78107e-12 -3.69479e-12 0)             (-9.83655e-12 -3.57763e-12 0)             (-9.89227e-12 -3.45055e-12 0)             (-9.9867e-12 -3.20414e-12 0)             (-1.00281e-11 -3.06746e-12 0)             (-1.01104e-11 -2.80284e-12 0)             (-1.01516e-11 -2.66803e-12 0)             (-1.01925e-11 -2.53397e-12 0)             (-1.02724e-11 -2.26256e-12 0)             (-1.03492e-11 -1.97076e-12 0)             (-1.03869e-11 -1.84079e-12 0)             (-1.04595e-11 -1.57385e-12 0)             (-1.04944e-11 -1.43578e-12 0)             (-1.05614e-11 -1.16151e-12 0)             (-1.06257e-11 -8.7384e-13 0)             (-1.06871e-11 -5.83273e-13 0)             (-1.07403e-11 -3.07918e-13 0)
          0.7             (1.30315e-11 -6.2345e-13 0)             (1.33078e-11 -1.18696e-12 0)             (1.33078e-11 -1.18696e-12 0)             (1.33785e-11 -8.22513e-13 0)             (1.33785e-11 -8.22513e-13 0)             (1.32324e-11 -3.08139e-13 0)             (1.29363e-11 8.34919e-14 0)             (1.29363e-11 8.34919e-14 0)             (1.24866e-11 4.01182e-13 0)             (1.19206e-11 6.11427e-13 0)             (1.19206e-11 6.11427e-13 0)             (1.12714e-11 7.15686e-13 0)             (1.12714e-11 7.15686e-13 0)             (1.05693e-11 7.16257e-13 0)             (9.84088e-12 6.14435e-13 0)             (9.84088e-12 6.14435e-13 0)             (9.10598e-12 4.31151e-13 0)             (8.38574e-12 1.99438e-13 0)             (7.69438e-12 -5.44012e-14 0)             (7.69438e-12 -5.44012e-14 0)             (7.0428e-12 -3.28291e-13 0)             (6.43917e-12 -6.18373e-13 0)             (6.43917e-12 -6.18373e-13 0)             (5.88651e-12 -9.27737e-13 0)             (5.38821e-12 -1.2548e-12 0)             (4.94434e-12 -1.59226e-12 0)             (4.94434e-12 -1.59226e-12 0)             (4.55354e-12 -1.93296e-12 0)             (4.21255e-12 -2.26398e-12 0)             (3.91895e-12 -2.57921e-12 0)             (3.66785e-12 -2.87642e-12 0)             (3.66785e-12 -2.87642e-12 0)             (3.45476e-12 -3.14709e-12 0)             (3.27547e-12 -3.39387e-12 0)             (3.12641e-12 -3.61203e-12 0)             (3.00278e-12 -3.79701e-12 0)             (2.89948e-12 -3.95744e-12 0)             (2.89948e-12 -3.95744e-12 0)             (2.8164e-12 -4.09663e-12 0)             (2.75054e-12 -4.21268e-12 0)             (2.6979e-12 -4.31001e-12 0)             (2.6588e-12 -4.39002e-12 0)             (2.62904e-12 -4.44774e-12 0)             (2.60665e-12 -4.48241e-12 0)             (2.5879e-12 -4.49173e-12 0)             (2.57591e-12 -4.4918e-12 0)             (2.56582e-12 -4.47515e-12 0)             (2.55773e-12 -4.42345e-12 0)             (2.55002e-12 -4.36211e-12 0)             (2.54498e-12 -4.29219e-12 0)             (2.53861e-12 -4.19102e-12 0)             (2.53121e-12 -4.07876e-12 0)             (2.52377e-12 -3.97077e-12 0)             (2.50119e-12 -3.75195e-12 0)             (2.48599e-12 -3.63618e-12 0)             (2.46805e-12 -3.5176e-12 0)             (2.44691e-12 -3.39308e-12 0)             (2.42294e-12 -3.2588e-12 0)             (2.36779e-12 -2.99944e-12 0)             (2.33665e-12 -2.86204e-12 0)             (2.30311e-12 -2.72002e-12 0)             (2.26759e-12 -2.58198e-12 0)             (2.21822e-12 -2.3154e-12 0)             (2.19835e-12 -2.18235e-12 0)             (2.15321e-12 -1.92555e-12 0)             (2.1276e-12 -1.80058e-12 0)             (2.10076e-12 -1.67828e-12 0)             (2.04188e-12 -1.43078e-12 0)             (1.97991e-12 -1.19977e-12 0)             (1.94724e-12 -1.0683e-12 0)             (1.88348e-12 -8.2526e-13 0)             (1.85164e-12 -7.08515e-13 0)             (1.78738e-12 -4.61056e-13 0)             (1.7268e-12 -1.94952e-13 0)             (1.66838e-12 5.21649e-14 0)             (1.61909e-12 3.41591e-13 0)
          0.8             (1.50253e-11 -9.70161e-13 0)             (1.52653e-11 -1.29918e-12 0)             (1.52653e-11 -1.29918e-12 0)             (1.51987e-11 -1.91839e-13 0)             (1.51987e-11 -1.91839e-13 0)             (1.49377e-11 6.92341e-13 0)             (1.45096e-11 1.48901e-12 0)             (1.45096e-11 1.48901e-12 0)             (1.39226e-11 2.17037e-12 0)             (1.32212e-11 2.66892e-12 0)             (1.32212e-11 2.66892e-12 0)             (1.24413e-11 2.96492e-12 0)             (1.24413e-11 2.96492e-12 0)             (1.16174e-11 3.0719e-12 0)             (1.07796e-11 3.00769e-12 0)             (1.07796e-11 3.00769e-12 0)             (9.95099e-12 2.79849e-12 0)             (9.15066e-12 2.48805e-12 0)             (8.38778e-12 2.10518e-12 0)             (8.38778e-12 2.10518e-12 0)             (7.67097e-12 1.65594e-12 0)             (7.00918e-12 1.16121e-12 0)             (7.00918e-12 1.16121e-12 0)             (6.40495e-12 6.3879e-13 0)             (5.86089e-12 9.57576e-14 0)             (5.37563e-12 -4.62417e-13 0)             (5.37563e-12 -4.62417e-13 0)             (4.94705e-12 -1.01951e-12 0)             (4.57168e-12 -1.55751e-12 0)             (4.24449e-12 -2.07242e-12 0)             (3.95962e-12 -2.55801e-12 0)             (3.95962e-12 -2.55801e-12 0)             (3.71386e-12 -3.00767e-12 0)             (3.50262e-12 -3.4228e-12 0)             (3.32198e-12 -3.79226e-12 0)             (3.16501e-12 -4.11279e-12 0)             (3.0296e-12 -4.39923e-12 0)             (3.0296e-12 -4.39923e-12 0)             (2.9107e-12 -4.6457e-12 0)             (2.80739e-12 -4.85261e-12 0)             (2.71535e-12 -5.02786e-12 0)             (2.63311e-12 -5.17556e-12 0)             (2.55804e-12 -5.29421e-12 0)             (2.48923e-12 -5.37791e-12 0)             (2.42449e-12 -5.43028e-12 0)             (2.36407e-12 -5.45774e-12 0)             (2.30532e-12 -5.4515e-12 0)             (2.24851e-12 -5.42628e-12 0)             (2.19146e-12 -5.37837e-12 0)             (2.13626e-12 -5.30882e-12 0)             (2.07749e-12 -5.23937e-12 0)             (2.01717e-12 -5.15123e-12 0)             (1.95347e-12 -5.04329e-12 0)             (1.81975e-12 -4.76522e-12 0)             (1.74928e-12 -4.61393e-12 0)             (1.67576e-12 -4.45621e-12 0)             (1.60006e-12 -4.28045e-12 0)             (1.52306e-12 -4.10344e-12 0)             (1.36308e-12 -3.74941e-12 0)             (1.2829e-12 -3.57347e-12 0)             (1.19969e-12 -3.39607e-12 0)             (1.11695e-12 -3.21192e-12 0)             (9.82815e-13 -2.85468e-12 0)             (9.23066e-13 -2.679e-12 0)             (8.00567e-13 -2.34578e-12 0)             (7.38174e-13 -2.18924e-12 0)             (6.75711e-13 -2.03448e-12 0)             (5.48839e-13 -1.71702e-12 0)             (4.24448e-13 -1.42575e-12 0)             (3.63284e-13 -1.27316e-12 0)             (2.44208e-13 -9.8509e-13 0)             (1.86638e-13 -8.34792e-13 0)             (7.65592e-14 -5.52599e-13 0)             (-2.3749e-14 -2.42993e-13 0)             (-1.15925e-13 4.47942e-14 0)             (-1.91168e-13 4.28623e-13 0)