# Probe 0 (15.31 -0.61 0)
# Probe 1 (15.31 -0.6 0)
# Probe 2 (15.31 -0.59 0)
# Probe 3 (15.31 -0.58 0)
# Probe 4 (15.31 -0.57 0)
# Probe 5 (15.31 -0.56 0)
# Probe 6 (15.31 -0.55 0)
# Probe 7 (15.31 -0.54 0)
# Probe 8 (15.31 -0.53 0)
# Probe 9 (15.31 -0.52 0)
# Probe 10 (15.31 -0.51 0)
# Probe 11 (15.31 -0.5 0)
# Probe 12 (15.31 -0.49 0)
# Probe 13 (15.31 -0.48 0)
# Probe 14 (15.31 -0.47 0)
# Probe 15 (15.31 -0.46 0)
# Probe 16 (15.31 -0.45 0)
# Probe 17 (15.31 -0.44 0)
# Probe 18 (15.31 -0.43 0)
# Probe 19 (15.31 -0.42 0)
# Probe 20 (15.31 -0.41 0)
# Probe 21 (15.31 -0.4 0)
# Probe 22 (15.31 -0.39 0)
# Probe 23 (15.31 -0.38 0)
# Probe 24 (15.31 -0.37 0)
# Probe 25 (15.31 -0.36 0)
# Probe 26 (15.31 -0.35 0)
# Probe 27 (15.31 -0.34 0)
# Probe 28 (15.31 -0.33 0)
# Probe 29 (15.31 -0.32 0)
# Probe 30 (15.31 -0.31 0)
# Probe 31 (15.31 -0.3 0)
# Probe 32 (15.31 -0.29 0)
# Probe 33 (15.31 -0.28 0)
# Probe 34 (15.31 -0.27 0)
# Probe 35 (15.31 -0.26 0)
# Probe 36 (15.31 -0.25 0)
# Probe 37 (15.31 -0.24 0)
# Probe 38 (15.31 -0.23 0)
# Probe 39 (15.31 -0.22 0)
# Probe 40 (15.31 -0.21 0)
# Probe 41 (15.31 -0.2 0)
# Probe 42 (15.31 -0.19 0)
# Probe 43 (15.31 -0.18 0)
# Probe 44 (15.31 -0.17 0)
# Probe 45 (15.31 -0.16 0)
# Probe 46 (15.31 -0.15 0)
# Probe 47 (15.31 -0.14 0)
# Probe 48 (15.31 -0.13 0)
# Probe 49 (15.31 -0.12 0)
# Probe 50 (15.31 -0.11 0)
# Probe 51 (15.31 -0.1 0)
# Probe 52 (15.31 -0.09 0)
# Probe 53 (15.31 -0.08 0)
# Probe 54 (15.31 -0.07 0)
# Probe 55 (15.31 -0.06 0)
# Probe 56 (15.31 -0.05 0)
# Probe 57 (15.31 -0.04 0)
# Probe 58 (15.31 -0.03 0)
# Probe 59 (15.31 -0.02 0)
# Probe 60 (15.31 -0.01 0)
# Probe 61 (15.31 0 0)
# Probe 62 (15.31 0.01 0)
# Probe 63 (15.31 0.02 0)
# Probe 64 (15.31 0.03 0)
# Probe 65 (15.31 0.04 0)
# Probe 66 (15.31 0.05 0)
# Probe 67 (15.31 0.06 0)
# Probe 68 (15.31 0.07 0)
# Probe 69 (15.31 0.08 0)
# Probe 70 (15.31 0.09 0)
# Probe 71 (15.31 0.1 0)
# Probe 72 (15.31 0.11 0)
# Probe 73 (15.31 0.12 0)
# Probe 74 (15.31 0.13 0)
# Probe 75 (15.31 0.14 0)
#       Probe             0             1             2             3             4             5             6             7             8             9            10            11            12            13            14            15            16            17            18            19            20            21            22            23            24            25            26            27            28            29            30            31            32            33            34            35            36            37            38            39            40            41            42            43            44            45            46            47            48            49            50            51            52            53            54            55            56            57            58            59            60            61            62            63            64            65            66            67            68            69            70            71            72            73            74            75
#        Time
          0.1             (-1.17485e-11 1.45795e-12 0)             (-1.2316e-11 2.31284e-12 0)             (-1.2316e-11 2.31284e-12 0)             (-1.27722e-11 8.94495e-13 0)             (-1.27722e-11 8.94495e-13 0)             (-1.31104e-11 -9.80268e-13 0)             (-1.32708e-11 -3.19475e-12 0)             (-1.32708e-11 -3.19475e-12 0)             (-1.32658e-11 -5.5359e-12 0)             (-1.31259e-11 -7.88002e-12 0)             (-1.31259e-11 -7.88002e-12 0)             (-1.28868e-11 -1.01317e-11 0)             (-1.28868e-11 -1.01317e-11 0)             (-1.25828e-11 -1.22154e-11 0)             (-1.22421e-11 -1.40899e-11 0)             (-1.22421e-11 -1.40899e-11 0)             (-1.18893e-11 -1.57355e-11 0)             (-1.15375e-11 -1.71432e-11 0)             (-1.11968e-11 -1.83268e-11 0)             (-1.11968e-11 -1.83268e-11 0)             (-1.08746e-11 -1.92938e-11 0)             (-1.05704e-11 -2.0066e-11 0)             (-1.05704e-11 -2.0066e-11 0)             (-1.02835e-11 -2.06631e-11 0)             (-1.00129e-11 -2.11021e-11 0)             (-9.75671e-12 -2.14053e-11 0)             (-9.75671e-12 -2.14053e-11 0)             (-9.50902e-12 -2.15945e-11 0)             (-9.26275e-12 -2.16806e-11 0)             (-9.01506e-12 -2.16911e-11 0)             (-8.76356e-12 -2.16443e-11 0)             (-8.76356e-12 -2.16443e-11 0)             (-8.50551e-12 -2.15432e-11 0)             (-8.24121e-12 -2.1409e-11 0)             (-7.9688e-12 -2.12574e-11 0)             (-7.69053e-12 -2.1092e-11 0)             (-7.40516e-12 -2.09169e-11 0)             (-7.40516e-12 -2.09169e-11 0)             (-7.11316e-12 -2.07184e-11 0)             (-6.81362e-12 -2.04964e-11 0)             (-6.50526e-12 -2.02596e-11 0)             (-6.18782e-12 -2.00019e-11 0)             (-5.86418e-12 -1.97243e-11 0)             (-5.53504e-12 -1.94227e-11 0)             (-5.20241e-12 -1.90882e-11 0)             (-4.86839e-12 -1.86979e-11 0)             (-4.53722e-12 -1.82641e-11 0)             (-4.20774e-12 -1.7815e-11 0)             (-3.88221e-12 -1.73483e-11 0)             (-3.56018e-12 -1.6875e-11 0)             (-3.24259e-12 -1.63887e-11 0)             (-2.92964e-12 -1.58806e-11 0)             (-2.62127e-12 -1.53696e-11 0)             (-2.02163e-12 -1.43358e-11 0)             (-1.73094e-12 -1.38207e-11 0)             (-1.44771e-12 -1.33086e-11 0)             (-1.17126e-12 -1.2807e-11 0)             (-9.03013e-13 -1.23058e-11 0)             (-3.92627e-13 -1.12987e-11 0)             (-1.51603e-13 -1.07881e-11 0)             (8.04999e-14 -1.02808e-11 0)             (3.02937e-13 -9.77886e-12 0)             (7.17351e-13 -8.77502e-12 0)             (9.09196e-13 -8.2827e-12 0)             (1.26239e-12 -7.3318e-12 0)             (1.42328e-12 -6.85532e-12 0)             (1.57296e-12 -6.38774e-12 0)             (1.84384e-12 -5.457e-12 0)             (2.07545e-12 -4.52142e-12 0)             (2.17784e-12 -4.06758e-12 0)             (2.35434e-12 -3.17022e-12 0)             (2.42977e-12 -2.73485e-12 0)             (2.5563e-12 -1.85862e-12 0)             (2.65046e-12 -1.0091e-12 0)             (2.71395e-12 -1.90787e-13 0)             (2.74987e-12 6.77693e-13 0)
          0.2             (1.86959e-11 -8.81463e-13 0)             (1.91748e-11 -2.07175e-12 0)             (1.91748e-11 -2.07175e-12 0)             (1.95671e-11 -2.10946e-12 0)             (1.95671e-11 -2.10946e-12 0)             (1.97727e-11 -1.5684e-12 0)             (1.97933e-11 -9.62019e-13 0)             (1.97933e-11 -9.62019e-13 0)             (1.96523e-11 -3.11648e-13 0)             (1.9379e-11 2.47933e-13 0)             (1.9379e-11 2.47933e-13 0)             (1.90045e-11 6.60339e-13 0)             (1.90045e-11 6.60339e-13 0)             (1.85535e-11 9.10178e-13 0)             (1.8048e-11 9.87251e-13 0)             (1.8048e-11 9.87251e-13 0)             (1.74988e-11 9.06238e-13 0)             (1.69191e-11 6.92376e-13 0)             (1.63133e-11 3.6787e-13 0)             (1.63133e-11 3.6787e-13 0)             (1.56883e-11 -4.56372e-14 0)             (1.50468e-11 -5.09922e-13 0)             (1.50468e-11 -5.09922e-13 0)             (1.43912e-11 -1.00441e-12 0)             (1.37225e-11 -1.51303e-12 0)             (1.30392e-11 -2.01185e-12 0)             (1.30392e-11 -2.01185e-12 0)             (1.23418e-11 -2.50302e-12 0)             (1.16308e-11 -2.98522e-12 0)             (1.0905e-11 -3.452e-12 0)             (1.01696e-11 -3.90066e-12 0)             (1.01696e-11 -3.90066e-12 0)             (9.42352e-12 -4.32609e-12 0)             (8.66895e-12 -4.73845e-12 0)             (7.90669e-12 -5.13154e-12 0)             (7.13861e-12 -5.49169e-12 0)             (6.36845e-12 -5.83254e-12 0)             (6.36845e-12 -5.83254e-12 0)             (5.59563e-12 -6.15762e-12 0)             (4.82326e-12 -6.45659e-12 0)             (4.05207e-12 -6.73581e-12 0)             (3.28267e-12 -6.99791e-12 0)             (2.51527e-12 -7.24981e-12 0)             (1.75311e-12 -7.4824e-12 0)             (9.95702e-13 -7.65579e-12 0)             (2.47018e-13 -7.77259e-12 0)             (-4.90826e-13 -7.84117e-12 0)             (-1.21616e-12 -7.86228e-12 0)             (-1.92592e-12 -7.83859e-12 0)             (-2.61714e-12 -7.78922e-12 0)             (-3.29093e-12 -7.70429e-12 0)             (-3.94316e-12 -7.58201e-12 0)             (-4.57462e-12 -7.44664e-12 0)             (-5.77013e-12 -7.13018e-12 0)             (-6.33335e-12 -6.95798e-12 0)             (-6.87343e-12 -6.78679e-12 0)             (-7.39113e-12 -6.60981e-12 0)             (-7.88559e-12 -6.4294e-12 0)             (-8.80647e-12 -6.06808e-12 0)             (-9.23492e-12 -5.88872e-12 0)             (-9.6412e-12 -5.70661e-12 0)             (-1.00266e-11 -5.51431e-12 0)             (-1.07346e-11 -5.1247e-12 0)             (-1.10591e-11 -4.91586e-12 0)             (-1.16466e-11 -4.48086e-12 0)             (-1.19106e-11 -4.25226e-12 0)             (-1.21551e-11 -4.02399e-12 0)             (-1.25898e-11 -3.55252e-12 0)             (-1.29537e-11 -3.0895e-12 0)             (-1.31098e-11 -2.86877e-12 0)             (-1.33736e-11 -2.39512e-12 0)             (-1.34833e-11 -2.1723e-12 0)             (-1.36586e-11 -1.70908e-12 0)             (-1.37798e-11 -1.25466e-12 0)             (-1.38506e-11 -7.98367e-13 0)             (-1.38764e-11 -3.42717e-13 0)
          0.3             (2.08251e-11 -5.89453e-13 0)             (2.02935e-11 -9.03035e-13 0)             (2.02935e-11 -9.03035e-13 0)             (1.96749e-11 -4.70444e-13 0)             (1.96749e-11 -4.70444e-13 0)             (1.90865e-11 -2.28705e-13 0)             (1.85901e-11 -6.23679e-14 0)             (1.85901e-11 -6.23679e-14 0)             (1.81929e-11 5.03977e-14 0)             (1.78842e-11 6.24401e-14 0)             (1.78842e-11 6.24401e-14 0)             (1.76348e-11 -2.01364e-14 0)             (1.76348e-11 -2.01364e-14 0)             (1.7419e-11 -1.66414e-13 0)             (1.72102e-11 -3.3181e-13 0)             (1.72102e-11 -3.3181e-13 0)             (1.69864e-11 -4.98808e-13 0)             (1.67307e-11 -6.42916e-13 0)             (1.64312e-11 -7.58329e-13 0)             (1.64312e-11 -7.58329e-13 0)             (1.60804e-11 -8.453e-13 0)             (1.56728e-11 -8.84073e-13 0)             (1.56728e-11 -8.84073e-13 0)             (1.5206e-11 -8.94012e-13 0)             (1.46813e-11 -8.73934e-13 0)             (1.40999e-11 -8.23597e-13 0)             (1.40999e-11 -8.23597e-13 0)             (1.34648e-11 -7.6165e-13 0)             (1.27815e-11 -6.88503e-13 0)             (1.20527e-11 -6.11591e-13 0)             (1.12846e-11 -5.38424e-13 0)             (1.12846e-11 -5.38424e-13 0)             (1.04832e-11 -4.69403e-13 0)             (9.65433e-12 -4.02891e-13 0)             (8.80338e-12 -3.49111e-13 0)             (7.93693e-12 -3.11279e-13 0)             (7.05948e-12 -2.85509e-13 0)             (7.05948e-12 -2.85509e-13 0)             (6.176e-12 -2.66915e-13 0)             (5.28955e-12 -2.67483e-13 0)             (4.40357e-12 -2.91806e-13 0)             (3.52207e-12 -3.31686e-13 0)             (2.64607e-12 -4.09354e-13 0)             (1.77841e-12 -4.96218e-13 0)             (9.20403e-13 -5.60622e-13 0)             (7.63488e-14 -6.01066e-13 0)             (-7.48805e-13 -6.18779e-13 0)             (-1.55543e-12 -6.21347e-13 0)             (-2.33923e-12 -6.07262e-13 0)             (-3.09905e-12 -5.76397e-13 0)             (-3.83486e-12 -5.34122e-13 0)             (-4.54395e-12 -4.90629e-13 0)             (-5.22664e-12 -4.3945e-13 0)             (-6.51254e-12 -3.48791e-13 0)             (-7.11428e-12 -3.01265e-13 0)             (-7.69038e-12 -2.64349e-13 0)             (-8.23923e-12 -2.40398e-13 0)             (-8.76199e-12 -2.17533e-13 0)             (-9.72996e-12 -1.97557e-13 0)             (-1.01756e-11 -1.95373e-13 0)             (-1.05982e-11 -2.07693e-13 0)             (-1.09966e-11 -2.2553e-13 0)             (-1.17271e-11 -2.45248e-13 0)             (-1.20597e-11 -2.6838e-13 0)             (-1.26597e-11 -2.96532e-13 0)             (-1.29286e-11 -3.06297e-13 0)             (-1.31776e-11 -3.25429e-13 0)             (-1.3617e-11 -3.39128e-13 0)             (-1.39827e-11 -3.6461e-13 0)             (-1.41391e-11 -3.53494e-13 0)             (-1.44025e-11 -3.36737e-13 0)             (-1.45099e-11 -3.27988e-13 0)             (-1.46804e-11 -2.79485e-13 0)             (-1.47922e-11 -2.11777e-13 0)             (-1.48512e-11 -1.0245e-13 0)             (-1.48604e-11 -1.34003e-13 0)
          0.4             (2.48085e-11 -4.74056e-13 0)             (2.38838e-11 -9.83573e-13 0)             (2.38838e-11 -9.83573e-13 0)             (2.30361e-11 -8.7533e-13 0)             (2.30361e-11 -8.7533e-13 0)             (2.23011e-11 -6.54224e-13 0)             (2.17471e-11 -5.33608e-13 0)             (2.17471e-11 -5.33608e-13 0)             (2.1368e-11 -5.24182e-13 0)             (2.11362e-11 -6.44982e-13 0)             (2.11362e-11 -6.44982e-13 0)             (2.10041e-11 -8.60109e-13 0)             (2.10041e-11 -8.60109e-13 0)             (2.09264e-11 -1.11842e-12 0)             (2.08565e-11 -1.38148e-12 0)             (2.08565e-11 -1.38148e-12 0)             (2.07588e-11 -1.63311e-12 0)             (2.06058e-11 -1.84715e-12 0)             (2.03781e-11 -2.03297e-12 0)             (2.03781e-11 -2.03297e-12 0)             (2.00644e-11 -2.18369e-12 0)             (1.96581e-11 -2.29541e-12 0)             (1.96581e-11 -2.29541e-12 0)             (1.91552e-11 -2.38154e-12 0)             (1.85558e-11 -2.43792e-12 0)             (1.78629e-11 -2.47195e-12 0)             (1.78629e-11 -2.47195e-12 0)             (1.7082e-11 -2.48905e-12 0)             (1.62209e-11 -2.49641e-12 0)             (1.5289e-11 -2.49419e-12 0)             (1.42956e-11 -2.48634e-12 0)             (1.42956e-11 -2.48634e-12 0)             (1.32507e-11 -2.45935e-12 0)             (1.21621e-11 -2.3955e-12 0)             (1.10416e-11 -2.3071e-12 0)             (9.90059e-12 -2.18693e-12 0)             (8.7481e-12 -2.03331e-12 0)             (8.7481e-12 -2.03331e-12 0)             (7.59343e-12 -1.83858e-12 0)             (6.44629e-12 -1.60108e-12 0)             (5.31524e-12 -1.37718e-12 0)             (4.20213e-12 -1.18646e-12 0)             (3.10865e-12 -1.0322e-12 0)             (2.04147e-12 -9.05519e-13 0)             (9.99074e-13 -7.88454e-13 0)             (-1.57089e-14 -6.89533e-13 0)             (-1.00201e-12 -5.99983e-13 0)             (-1.95955e-12 -5.12003e-13 0)             (-2.88506e-12 -4.18959e-13 0)             (-3.78186e-12 -3.11547e-13 0)             (-4.64838e-12 -1.81041e-13 0)             (-5.48439e-12 -3.46879e-14 0)             (-6.29208e-12 1.21365e-13 0)             (-7.82228e-12 3.87561e-13 0)             (-8.54211e-12 4.97286e-13 0)             (-9.23368e-12 6.16745e-13 0)             (-9.89549e-12 7.28127e-13 0)             (-1.05282e-11 8.10801e-13 0)             (-1.17022e-11 9.10202e-13 0)             (-1.22435e-11 9.32293e-13 0)             (-1.2755e-11 9.42154e-13 0)             (-1.32365e-11 9.48937e-13 0)             (-1.41266e-11 9.43868e-13 0)             (-1.45318e-11 9.37037e-13 0)             (-1.52598e-11 9.08258e-13 0)             (-1.55827e-11 8.85757e-13 0)             (-1.58798e-11 8.70078e-13 0)             (-1.63994e-11 8.20409e-13 0)             (-1.6824e-11 7.74826e-13 0)             (-1.70017e-11 7.51899e-13 0)             (-1.72944e-11 6.95333e-13 0)             (-1.74105e-11 6.69621e-13 0)             (-1.75837e-11 5.9637e-13 0)             (-1.76863e-11 5.39412e-13 0)             (-1.77217e-11 4.84525e-13 0)             (-1.7698e-11 4.07369e-13 0)
          0.5             (1.52343e-11 2.29525e-12 0)             (1.46439e-11 4.27334e-12 0)             (1.46439e-11 4.27334e-12 0)             (1.42235e-11 3.54654e-12 0)             (1.42235e-11 3.54654e-12 0)             (1.37925e-11 2.6129e-12 0)             (1.33692e-11 1.68163e-12 0)             (1.33692e-11 1.68163e-12 0)             (1.29373e-11 9.86059e-13 0)             (1.24874e-11 5.44435e-13 0)             (1.24874e-11 5.44435e-13 0)             (1.20092e-11 3.52876e-13 0)             (1.20092e-11 3.52876e-13 0)             (1.14986e-11 3.917e-13 0)             (1.0953e-11 6.17903e-13 0)             (1.0953e-11 6.17903e-13 0)             (1.03793e-11 9.74382e-13 0)             (9.78191e-12 1.43732e-12 0)             (9.17011e-12 1.97443e-12 0)             (9.17011e-12 1.97443e-12 0)             (8.55088e-12 2.55742e-12 0)             (7.93034e-12 3.17688e-12 0)             (7.93034e-12 3.17688e-12 0)             (7.31302e-12 3.81722e-12 0)             (6.7034e-12 4.47381e-12 0)             (6.10479e-12 5.13027e-12 0)             (6.10479e-12 5.13027e-12 0)             (5.52092e-12 5.74495e-12 0)             (4.95594e-12 6.30971e-12 0)             (4.4098e-12 6.81914e-12 0)             (3.88778e-12 7.27003e-12 0)             (3.88778e-12 7.27003e-12 0)             (3.38985e-12 7.64302e-12 0)             (2.917e-12 7.9393e-12 0)             (2.46978e-12 8.20469e-12 0)             (2.05095e-12 8.45001e-12 0)             (1.66236e-12 8.64725e-12 0)             (1.66236e-12 8.64725e-12 0)             (1.30444e-12 8.75305e-12 0)             (9.75037e-13 8.78213e-12 0)             (6.75834e-13 8.76699e-12 0)             (4.02088e-13 8.70287e-12 0)             (1.53288e-13 8.59127e-12 0)             (-7.2476e-14 8.4593e-12 0)             (-2.78028e-13 8.32139e-12 0)             (-4.66104e-13 8.17176e-12 0)             (-6.39996e-13 8.02049e-12 0)             (-8.02291e-13 7.87274e-12 0)             (-9.52324e-13 7.72042e-12 0)             (-1.09351e-12 7.56461e-12 0)             (-1.22619e-12 7.41685e-12 0)             (-1.35239e-12 7.26693e-12 0)             (-1.46945e-12 7.10713e-12 0)             (-1.68861e-12 6.77989e-12 0)             (-1.79093e-12 6.59888e-12 0)             (-1.88875e-12 6.41993e-12 0)             (-1.98309e-12 6.22685e-12 0)             (-2.07263e-12 6.02771e-12 0)             (-2.24053e-12 5.61972e-12 0)             (-2.31908e-12 5.39922e-12 0)             (-2.39487e-12 5.1805e-12 0)             (-2.46743e-12 4.95853e-12 0)             (-2.62639e-12 4.48521e-12 0)             (-2.70631e-12 4.25168e-12 0)             (-2.84784e-12 3.76487e-12 0)             (-2.9097e-12 3.52646e-12 0)             (-2.96523e-12 3.2839e-12 0)             (-3.0591e-12 2.77773e-12 0)             (-3.13007e-12 2.28599e-12 0)             (-3.15721e-12 2.04699e-12 0)             (-3.19308e-12 1.54184e-12 0)             (-3.20346e-12 1.30969e-12 0)             (-3.20642e-12 8.29044e-13 0)             (-3.18768e-12 3.78255e-13 0)             (-3.14598e-12 -7.21691e-14 0)             (-3.08672e-12 -5.49071e-13 0)
          0.6             (1.56593e-11 3.22953e-12 0)             (1.51591e-11 5.45226e-12 0)             (1.51591e-11 5.45226e-12 0)             (1.48138e-11 3.91933e-12 0)             (1.48138e-11 3.91933e-12 0)             (1.44114e-11 2.78974e-12 0)             (1.39812e-11 1.77367e-12 0)             (1.39812e-11 1.77367e-12 0)             (1.35039e-11 1.12108e-12 0)             (1.29771e-11 8.35579e-13 0)             (1.29771e-11 8.35579e-13 0)             (1.23984e-11 8.91364e-13 0)             (1.23984e-11 8.91364e-13 0)             (1.17727e-11 1.20488e-12 0)             (1.1107e-11 1.72841e-12 0)             (1.1107e-11 1.72841e-12 0)             (1.0415e-11 2.42107e-12 0)             (9.70752e-12 3.23981e-12 0)             (8.9973e-12 4.13212e-12 0)             (8.9973e-12 4.13212e-12 0)             (8.29339e-12 5.06118e-12 0)             (7.60866e-12 6.00272e-12 0)             (7.60866e-12 6.00272e-12 0)             (6.94905e-12 6.92803e-12 0)             (6.3226e-12 7.81412e-12 0)             (5.73496e-12 8.64025e-12 0)             (5.73496e-12 8.64025e-12 0)             (5.18882e-12 9.39173e-12 0)             (4.68336e-12 1.00568e-11 0)             (4.21845e-12 1.06321e-11 0)             (3.796e-12 1.11166e-11 0)             (3.796e-12 1.11166e-11 0)             (3.41407e-12 1.15101e-11 0)             (3.06915e-12 1.18188e-11 0)             (2.76043e-12 1.20417e-11 0)             (2.48584e-12 1.21886e-11 0)             (2.24369e-12 1.22583e-11 0)             (2.24369e-12 1.22583e-11 0)             (2.03128e-12 1.22569e-11 0)             (1.84568e-12 1.21791e-11 0)             (1.68898e-12 1.20234e-11 0)             (1.55737e-12 1.18415e-11 0)             (1.44547e-12 1.16426e-11 0)             (1.35411e-12 1.14347e-11 0)             (1.27826e-12 1.12193e-11 0)             (1.21546e-12 1.09837e-11 0)             (1.16448e-12 1.074e-11 0)             (1.12403e-12 1.04829e-11 0)             (1.09412e-12 1.02058e-11 0)             (1.07354e-12 9.92584e-12 0)             (1.06219e-12 9.64327e-12 0)             (1.05774e-12 9.34415e-12 0)             (1.05993e-12 9.04106e-12 0)             (1.07376e-12 8.40943e-12 0)             (1.08458e-12 8.09726e-12 0)             (1.09748e-12 7.78432e-12 0)             (1.10942e-12 7.45718e-12 0)             (1.12311e-12 7.14234e-12 0)             (1.14827e-12 6.49246e-12 0)             (1.16035e-12 6.16635e-12 0)             (1.17137e-12 5.84768e-12 0)             (1.18063e-12 5.5245e-12 0)             (1.15684e-12 4.89414e-12 0)             (1.13425e-12 4.57793e-12 0)             (1.09897e-12 3.942e-12 0)             (1.08729e-12 3.64428e-12 0)             (1.07997e-12 3.34171e-12 0)             (1.07523e-12 2.73334e-12 0)             (1.08658e-12 2.15024e-12 0)             (1.09773e-12 1.86083e-12 0)             (1.13378e-12 1.31824e-12 0)             (1.15805e-12 1.0563e-12 0)             (1.21958e-12 5.50385e-13 0)             (1.2996e-12 7.20613e-14 0)             (1.39991e-12 -3.67377e-13 0)             (1.51653e-12 -9.18207e-13 0)
          0.7             (1.68752e-11 3.77335e-12 0)             (1.64058e-11 6.06177e-12 0)             (1.64058e-11 6.06177e-12 0)             (1.60894e-11 3.99517e-12 0)             (1.60894e-11 3.99517e-12 0)             (1.56983e-11 2.7752e-12 0)             (1.52649e-11 1.78791e-12 0)             (1.52649e-11 1.78791e-12 0)             (1.47638e-11 1.32928e-12 0)             (1.41994e-11 1.32945e-12 0)             (1.41994e-11 1.32945e-12 0)             (1.35715e-11 1.72919e-12 0)             (1.35715e-11 1.72919e-12 0)             (1.28932e-11 2.42712e-12 0)             (1.21744e-11 3.33841e-12 0)             (1.21744e-11 3.33841e-12 0)             (1.14333e-11 4.4025e-12 0)             (1.06843e-11 5.56061e-12 0)             (9.94006e-12 6.73345e-12 0)             (9.94006e-12 6.73345e-12 0)             (9.21725e-12 7.86916e-12 0)             (8.52418e-12 8.94919e-12 0)             (8.52418e-12 8.94919e-12 0)             (7.86748e-12 9.93932e-12 0)             (7.25346e-12 1.08263e-11 0)             (6.68524e-12 1.16029e-11 0)             (6.68524e-12 1.16029e-11 0)             (6.16244e-12 1.22642e-11 0)             (5.68565e-12 1.28204e-11 0)             (5.25218e-12 1.3273e-11 0)             (4.86086e-12 1.36281e-11 0)             (4.86086e-12 1.36281e-11 0)             (4.50849e-12 1.38817e-11 0)             (4.19275e-12 1.40527e-11 0)             (3.9105e-12 1.41519e-11 0)             (3.65856e-12 1.41765e-11 0)             (3.43444e-12 1.41377e-11 0)             (3.43444e-12 1.41377e-11 0)             (3.23676e-12 1.40357e-11 0)             (3.06201e-12 1.38809e-11 0)             (2.90837e-12 1.36772e-11 0)             (2.77509e-12 1.34205e-11 0)             (2.65895e-12 1.31254e-11 0)             (2.561e-12 1.28161e-11 0)             (2.47705e-12 1.25083e-11 0)             (2.40456e-12 1.22013e-11 0)             (2.34159e-12 1.18862e-11 0)             (2.28774e-12 1.15648e-11 0)             (2.24263e-12 1.12377e-11 0)             (2.20444e-12 1.09096e-11 0)             (2.17394e-12 1.05744e-11 0)             (2.1505e-12 1.02303e-11 0)             (2.13261e-12 9.8893e-12 0)             (2.10734e-12 9.20144e-12 0)             (2.09846e-12 8.84311e-12 0)             (2.09184e-12 8.48829e-12 0)             (2.08429e-12 8.14109e-12 0)             (2.07888e-12 7.78425e-12 0)             (2.06763e-12 7.08414e-12 0)             (2.06132e-12 6.72345e-12 0)             (2.05538e-12 6.37287e-12 0)             (2.0481e-12 6.02872e-12 0)             (1.97535e-12 5.32747e-12 0)             (1.92506e-12 4.99045e-12 0)             (1.84455e-12 4.30554e-12 0)             (1.81317e-12 3.97719e-12 0)             (1.7889e-12 3.64445e-12 0)             (1.7599e-12 2.98557e-12 0)             (1.75646e-12 2.36688e-12 0)             (1.76491e-12 2.05883e-12 0)             (1.80276e-12 1.4678e-12 0)             (1.83173e-12 1.17853e-12 0)             (1.91085e-12 6.14191e-13 0)             (2.01797e-12 1.01859e-13 0)             (2.15621e-12 -3.83046e-13 0)             (2.32049e-12 -1.00308e-12 0)
          0.8             (1.65096e-11 4.11143e-12 0)             (1.61271e-11 6.2813e-12 0)             (1.61271e-11 6.2813e-12 0)             (1.58753e-11 3.78294e-12 0)             (1.58753e-11 3.78294e-12 0)             (1.55327e-11 2.60056e-12 0)             (1.51319e-11 1.75866e-12 0)             (1.51319e-11 1.75866e-12 0)             (1.4654e-11 1.60289e-12 0)             (1.41082e-11 1.96984e-12 0)             (1.41082e-11 1.96984e-12 0)             (1.35039e-11 2.73526e-12 0)             (1.35039e-11 2.73526e-12 0)             (1.28591e-11 3.77146e-12 0)             (1.21895e-11 4.9854e-12 0)             (1.21895e-11 4.9854e-12 0)             (1.15121e-11 6.27679e-12 0)             (1.08432e-11 7.57212e-12 0)             (1.01939e-11 8.80445e-12 0)             (1.01939e-11 8.80445e-12 0)             (9.57698e-12 9.92762e-12 0)             (8.99953e-12 1.09354e-11 0)             (8.99953e-12 1.09354e-11 0)             (8.4657e-12 1.18211e-11 0)             (7.97868e-12 1.25629e-11 0)             (7.53895e-12 1.31576e-11 0)             (7.53895e-12 1.31576e-11 0)             (7.14634e-12 1.36269e-11 0)             (6.79744e-12 1.39722e-11 0)             (6.48747e-12 1.41915e-11 0)             (6.21859e-12 1.43066e-11 0)             (6.21859e-12 1.43066e-11 0)             (5.98521e-12 1.43266e-11 0)             (5.78433e-12 1.42575e-11 0)             (5.61424e-12 1.41078e-11 0)             (5.47072e-12 1.38983e-11 0)             (5.35303e-12 1.36479e-11 0)             (5.35303e-12 1.36479e-11 0)             (5.25594e-12 1.33583e-11 0)             (5.17499e-12 1.30415e-11 0)             (5.10805e-12 1.27095e-11 0)             (5.05243e-12 1.23599e-11 0)             (5.0037e-12 1.20042e-11 0)             (4.95967e-12 1.16516e-11 0)             (4.9204e-12 1.12952e-11 0)             (4.8809e-12 1.0948e-11 0)             (4.84113e-12 1.0609e-11 0)             (4.79916e-12 1.0274e-11 0)             (4.75288e-12 9.93971e-12 0)             (4.70324e-12 9.60626e-12 0)             (4.65042e-12 9.27955e-12 0)             (4.59378e-12 8.95279e-12 0)             (4.5357e-12 8.62652e-12 0)             (4.41573e-12 7.98486e-12 0)             (4.35332e-12 7.66086e-12 0)             (4.29137e-12 7.34295e-12 0)             (4.22779e-12 7.03174e-12 0)             (4.16441e-12 6.71562e-12 0)             (4.03886e-12 6.10344e-12 0)             (3.97606e-12 5.78721e-12 0)             (3.91583e-12 5.48262e-12 0)             (3.85515e-12 5.1888e-12 0)             (3.66481e-12 4.57503e-12 0)             (3.5533e-12 4.28465e-12 0)             (3.36176e-12 3.69307e-12 0)             (3.2815e-12 3.40254e-12 0)             (3.21189e-12 3.12392e-12 0)             (3.10477e-12 2.55792e-12 0)             (3.03959e-12 2.02294e-12 0)             (3.02333e-12 1.74792e-12 0)             (3.02313e-12 1.23261e-12 0)             (3.03845e-12 9.88697e-13 0)             (3.10175e-12 4.95823e-13 0)             (3.2087e-12 2.46117e-14 0)             (3.35809e-12 -4.18324e-13 0)             (3.54776e-12 -1.01834e-12 0)