# Probe 0 (15.31 -0.61 0)
# Probe 1 (15.31 -0.6 0)
# Probe 2 (15.31 -0.59 0)
# Probe 3 (15.31 -0.58 0)
# Probe 4 (15.31 -0.57 0)
# Probe 5 (15.31 -0.56 0)
# Probe 6 (15.31 -0.55 0)
# Probe 7 (15.31 -0.54 0)
# Probe 8 (15.31 -0.53 0)
# Probe 9 (15.31 -0.52 0)
# Probe 10 (15.31 -0.51 0)
# Probe 11 (15.31 -0.5 0)
# Probe 12 (15.31 -0.49 0)
# Probe 13 (15.31 -0.48 0)
# Probe 14 (15.31 -0.47 0)
# Probe 15 (15.31 -0.46 0)
# Probe 16 (15.31 -0.45 0)
# Probe 17 (15.31 -0.44 0)
# Probe 18 (15.31 -0.43 0)
# Probe 19 (15.31 -0.42 0)
# Probe 20 (15.31 -0.41 0)
# Probe 21 (15.31 -0.4 0)
# Probe 22 (15.31 -0.39 0)
# Probe 23 (15.31 -0.38 0)
# Probe 24 (15.31 -0.37 0)
# Probe 25 (15.31 -0.36 0)
# Probe 26 (15.31 -0.35 0)
# Probe 27 (15.31 -0.34 0)
# Probe 28 (15.31 -0.33 0)
# Probe 29 (15.31 -0.32 0)
# Probe 30 (15.31 -0.31 0)
# Probe 31 (15.31 -0.3 0)
# Probe 32 (15.31 -0.29 0)
# Probe 33 (15.31 -0.28 0)
# Probe 34 (15.31 -0.27 0)
# Probe 35 (15.31 -0.26 0)
# Probe 36 (15.31 -0.25 0)
# Probe 37 (15.31 -0.24 0)
# Probe 38 (15.31 -0.23 0)
# Probe 39 (15.31 -0.22 0)
# Probe 40 (15.31 -0.21 0)
# Probe 41 (15.31 -0.2 0)
# Probe 42 (15.31 -0.19 0)
# Probe 43 (15.31 -0.18 0)
# Probe 44 (15.31 -0.17 0)
# Probe 45 (15.31 -0.16 0)
# Probe 46 (15.31 -0.15 0)
# Probe 47 (15.31 -0.14 0)
# Probe 48 (15.31 -0.13 0)
# Probe 49 (15.31 -0.12 0)
# Probe 50 (15.31 -0.11 0)
# Probe 51 (15.31 -0.1 0)
# Probe 52 (15.31 -0.09 0)
# Probe 53 (15.31 -0.08 0)
# Probe 54 (15.31 -0.07 0)
# Probe 55 (15.31 -0.06 0)
# Probe 56 (15.31 -0.05 0)
# Probe 57 (15.31 -0.04 0)
# Probe 58 (15.31 -0.03 0)
# Probe 59 (15.31 -0.02 0)
# Probe 60 (15.31 -0.01 0)
# Probe 61 (15.31 0 0)
# Probe 62 (15.31 0.01 0)
# Probe 63 (15.31 0.02 0)
# Probe 64 (15.31 0.03 0)
# Probe 65 (15.31 0.04 0)
# Probe 66 (15.31 0.05 0)
# Probe 67 (15.31 0.06 0)
# Probe 68 (15.31 0.07 0)
# Probe 69 (15.31 0.08 0)
# Probe 70 (15.31 0.09 0)
# Probe 71 (15.31 0.1 0)
# Probe 72 (15.31 0.11 0)
# Probe 73 (15.31 0.12 0)
# Probe 74 (15.31 0.13 0)
# Probe 75 (15.31 0.14 0)
#       Probe             0             1             2             3             4             5             6             7             8             9            10            11            12            13            14            15            16            17            18            19            20            21            22            23            24            25            26            27            28            29            30            31            32            33            34            35            36            37            38            39            40            41            42            43            44            45            46            47            48            49            50            51            52            53            54            55            56            57            58            59            60            61            62            63            64            65            66            67            68            69            70            71            72            73            74            75
#        Time
          0.1             (-1.25596e-11 1.42738e-12 0)             (-1.3116e-11 2.26372e-12 0)             (-1.3116e-11 2.26372e-12 0)             (-1.35646e-11 8.7235e-13 0)             (-1.35646e-11 8.7235e-13 0)             (-1.38946e-11 -9.90692e-13 0)             (-1.4045e-11 -3.20796e-12 0)             (-1.4045e-11 -3.20796e-12 0)             (-1.403e-11 -5.54403e-12 0)             (-1.38818e-11 -7.87985e-12 0)             (-1.38818e-11 -7.87985e-12 0)             (-1.36353e-11 -1.01133e-11 0)             (-1.36353e-11 -1.01133e-11 0)             (-1.33256e-11 -1.21717e-11 0)             (-1.29813e-11 -1.40195e-11 0)             (-1.29813e-11 -1.40195e-11 0)             (-1.26235e-11 -1.56355e-11 0)             (-1.22691e-11 -1.7015e-11 0)             (-1.19293e-11 -1.81749e-11 0)             (-1.19293e-11 -1.81749e-11 0)             (-1.16106e-11 -1.91215e-11 0)             (-1.13151e-11 -1.98728e-11 0)             (-1.13151e-11 -1.98728e-11 0)             (-1.10392e-11 -2.046e-11 0)             (-1.07782e-11 -2.08929e-11 0)             (-1.05265e-11 -2.11975e-11 0)             (-1.05265e-11 -2.11975e-11 0)             (-1.02801e-11 -2.13958e-11 0)             (-1.00343e-11 -2.14991e-11 0)             (-9.78652e-12 -2.15217e-11 0)             (-9.53464e-12 -2.14787e-11 0)             (-9.53464e-12 -2.14787e-11 0)             (-9.2765e-12 -2.13915e-11 0)             (-9.0115e-12 -2.12769e-11 0)             (-8.73741e-12 -2.11394e-11 0)             (-8.45764e-12 -2.09787e-11 0)             (-8.16978e-12 -2.08091e-11 0)             (-8.16978e-12 -2.08091e-11 0)             (-7.87492e-12 -2.06289e-11 0)             (-7.57312e-12 -2.04244e-11 0)             (-7.26356e-12 -2.01968e-11 0)             (-6.94675e-12 -1.99441e-11 0)             (-6.62101e-12 -1.96729e-11 0)             (-6.29073e-12 -1.93842e-11 0)             (-5.95468e-12 -1.90637e-11 0)             (-5.61737e-12 -1.8689e-11 0)             (-5.28084e-12 -1.82668e-11 0)             (-4.9461e-12 -1.78251e-11 0)             (-4.61428e-12 -1.73768e-11 0)             (-4.28482e-12 -1.69166e-11 0)             (-3.95953e-12 -1.64387e-11 0)             (-3.63679e-12 -1.59659e-11 0)             (-3.31736e-12 -1.54871e-11 0)             (-2.69287e-12 -1.44924e-11 0)             (-2.38854e-12 -1.39863e-11 0)             (-2.09224e-12 -1.34754e-11 0)             (-1.80254e-12 -1.29636e-11 0)             (-1.52143e-12 -1.2457e-11 0)             (-9.86266e-13 -1.14326e-11 0)             (-7.32317e-13 -1.09283e-11 0)             (-4.88271e-13 -1.04176e-11 0)             (-2.54538e-13 -9.89836e-12 0)             (1.81792e-13 -8.90026e-12 0)             (3.84971e-13 -8.38415e-12 0)             (7.59603e-13 -7.40076e-12 0)             (9.30924e-13 -6.91321e-12 0)             (1.09149e-12 -6.42728e-12 0)             (1.3822e-12 -5.46264e-12 0)             (1.63289e-12 -4.52376e-12 0)             (1.74426e-12 -4.05771e-12 0)             (1.93682e-12 -3.14907e-12 0)             (2.01941e-12 -2.70305e-12 0)             (2.15709e-12 -1.83741e-12 0)             (2.26059e-12 -1.00319e-12 0)             (2.33e-12 -1.87348e-13 0)             (2.36866e-12 6.62721e-13 0)
          0.2             (2.119e-11 -1.15521e-12 0)             (2.1732e-11 -2.28216e-12 0)             (2.1732e-11 -2.28216e-12 0)             (2.21576e-11 -2.05382e-12 0)             (2.21576e-11 -2.05382e-12 0)             (2.23662e-11 -1.53724e-12 0)             (2.23815e-11 -8.31373e-13 0)             (2.23815e-11 -8.31373e-13 0)             (2.22239e-11 -7.75271e-14 0)             (2.19326e-11 5.79462e-13 0)             (2.19326e-11 5.79462e-13 0)             (2.15381e-11 1.07111e-12 0)             (2.15381e-11 1.07111e-12 0)             (2.10657e-11 1.37944e-12 0)             (2.05388e-11 1.50738e-12 0)             (2.05388e-11 1.50738e-12 0)             (1.99696e-11 1.47391e-12 0)             (1.93688e-11 1.30142e-12 0)             (1.87432e-11 1.02151e-12 0)             (1.87432e-11 1.02151e-12 0)             (1.80982e-11 6.69787e-13 0)             (1.74387e-11 2.64209e-13 0)             (1.74387e-11 2.64209e-13 0)             (1.67648e-11 -1.77349e-13 0)             (1.60779e-11 -6.45608e-13 0)             (1.53777e-11 -1.12899e-12 0)             (1.53777e-11 -1.12899e-12 0)             (1.46643e-11 -1.61358e-12 0)             (1.39383e-11 -2.09258e-12 0)             (1.32017e-11 -2.55412e-12 0)             (1.24539e-11 -2.99673e-12 0)             (1.24539e-11 -2.99673e-12 0)             (1.16936e-11 -3.41323e-12 0)             (1.09232e-11 -3.7898e-12 0)             (1.01438e-11 -4.14671e-12 0)             (9.35444e-12 -4.47722e-12 0)             (8.5595e-12 -4.76793e-12 0)             (8.5595e-12 -4.76793e-12 0)             (7.75834e-12 -5.03225e-12 0)             (6.95413e-12 -5.26359e-12 0)             (6.14809e-12 -5.46044e-12 0)             (5.34226e-12 -5.62958e-12 0)             (4.53825e-12 -5.78136e-12 0)             (3.73761e-12 -5.92138e-12 0)             (2.94007e-12 -6.04338e-12 0)             (2.14856e-12 -6.12558e-12 0)             (1.3662e-12 -6.1715e-12 0)             (5.94817e-13 -6.1755e-12 0)             (-1.61794e-13 -6.13059e-12 0)             (-8.99309e-13 -6.05924e-12 0)             (-1.61699e-12 -5.9617e-12 0)             (-2.312e-12 -5.84324e-12 0)             (-2.98195e-12 -5.71368e-12 0)             (-4.24619e-12 -5.41867e-12 0)             (-4.83948e-12 -5.2759e-12 0)             (-5.40832e-12 -5.12841e-12 0)             (-5.95039e-12 -4.99413e-12 0)             (-6.46913e-12 -4.85817e-12 0)             (-7.43421e-12 -4.60335e-12 0)             (-7.88084e-12 -4.47308e-12 0)             (-8.30346e-12 -4.33227e-12 0)             (-8.70375e-12 -4.19262e-12 0)             (-9.43893e-12 -3.88896e-12 0)             (-9.77374e-12 -3.74515e-12 0)             (-1.03813e-11 -3.41249e-12 0)             (-1.06553e-11 -3.25864e-12 0)             (-1.09096e-11 -3.09923e-12 0)             (-1.13616e-11 -2.76648e-12 0)             (-1.17433e-11 -2.4269e-12 0)             (-1.19079e-11 -2.27149e-12 0)             (-1.21886e-11 -1.91634e-12 0)             (-1.2306e-11 -1.74672e-12 0)             (-1.24977e-11 -1.40315e-12 0)             (-1.26323e-11 -1.05035e-12 0)             (-1.27157e-11 -6.88632e-13 0)             (-1.275e-11 -3.38871e-13 0)
          0.3             (7.60346e-12 -1.58402e-12 0)             (7.11116e-12 -2.31681e-12 0)             (7.11116e-12 -2.31681e-12 0)             (6.45963e-12 -9.68631e-13 0)             (6.45963e-12 -9.68631e-13 0)             (5.86925e-12 -8.53056e-14 0)             (5.33884e-12 6.23757e-13 0)             (5.33884e-12 6.23757e-13 0)             (4.86538e-12 1.20503e-12 0)             (4.44731e-12 1.66618e-12 0)             (4.44731e-12 1.66618e-12 0)             (4.07121e-12 2.02732e-12 0)             (4.07121e-12 2.02732e-12 0)             (3.72913e-12 2.31434e-12 0)             (3.41028e-12 2.55275e-12 0)             (3.41028e-12 2.55275e-12 0)             (3.10675e-12 2.75672e-12 0)             (2.80989e-12 2.94674e-12 0)             (2.51626e-12 3.13517e-12 0)             (2.51626e-12 3.13517e-12 0)             (2.22174e-12 3.30623e-12 0)             (1.92381e-12 3.45463e-12 0)             (1.92381e-12 3.45463e-12 0)             (1.61787e-12 3.57058e-12 0)             (1.30229e-12 3.65122e-12 0)             (9.71126e-13 3.70304e-12 0)             (9.71126e-13 3.70304e-12 0)             (6.19239e-13 3.72113e-12 0)             (2.48058e-13 3.70947e-12 0)             (-1.43095e-13 3.66753e-12 0)             (-5.53657e-13 3.60067e-12 0)             (-5.53657e-13 3.60067e-12 0)             (-9.83407e-13 3.52126e-12 0)             (-1.43156e-12 3.43427e-12 0)             (-1.89567e-12 3.35606e-12 0)             (-2.37493e-12 3.31626e-12 0)             (-2.8617e-12 3.34232e-12 0)             (-2.8617e-12 3.34232e-12 0)             (-3.353e-12 3.40332e-12 0)             (-3.84656e-12 3.45808e-12 0)             (-4.34087e-12 3.5194e-12 0)             (-4.83241e-12 3.56234e-12 0)             (-5.32387e-12 3.55964e-12 0)             (-5.81479e-12 3.52128e-12 0)             (-6.30539e-12 3.44868e-12 0)             (-6.79475e-12 3.36386e-12 0)             (-7.2806e-12 3.27868e-12 0)             (-7.76403e-12 3.18549e-12 0)             (-8.24005e-12 3.09206e-12 0)             (-8.70912e-12 3.00722e-12 0)             (-9.17017e-12 2.93489e-12 0)             (-9.62185e-12 2.85438e-12 0)             (-1.00614e-11 2.76218e-12 0)             (-1.09022e-11 2.59331e-12 0)             (-1.13004e-11 2.50942e-12 0)             (-1.16855e-11 2.42603e-12 0)             (-1.20554e-11 2.33952e-12 0)             (-1.24109e-11 2.24988e-12 0)             (-1.30769e-11 2.04301e-12 0)             (-1.33873e-11 1.921e-12 0)             (-1.36835e-11 1.7995e-12 0)             (-1.39655e-11 1.66952e-12 0)             (-1.44943e-11 1.39817e-12 0)             (-1.47405e-11 1.26047e-12 0)             (-1.51921e-11 9.73292e-13 0)             (-1.5398e-11 8.30291e-13 0)             (-1.55908e-11 6.83874e-13 0)             (-1.59366e-11 4.06121e-13 0)             (-1.62328e-11 1.26955e-13 0)             (-1.63632e-11 -4.94244e-15 0)             (-1.65886e-11 -2.82195e-13 0)             (-1.6684e-11 -4.15422e-13 0)             (-1.68444e-11 -6.75113e-13 0)             (-1.69649e-11 -9.42034e-13 0)             (-1.70501e-11 -1.20352e-12 0)             (-1.71036e-11 -1.47012e-12 0)
          0.4             (2.56443e-11 -4.02225e-13 0)             (2.47503e-11 -8.42288e-13 0)             (2.47503e-11 -8.42288e-13 0)             (2.38283e-11 -6.97302e-13 0)             (2.38283e-11 -6.97302e-13 0)             (2.30561e-11 -3.22102e-13 0)             (2.24595e-11 -5.26904e-14 0)             (2.24595e-11 -5.26904e-14 0)             (2.20298e-11 7.42796e-15 0)             (2.17338e-11 -9.8618e-14 0)             (2.17338e-11 -9.8618e-14 0)             (2.15221e-11 -3.12265e-13 0)             (2.15221e-11 -3.12265e-13 0)             (2.13464e-11 -5.84268e-13 0)             (2.11646e-11 -8.75958e-13 0)             (2.11646e-11 -8.75958e-13 0)             (2.09449e-11 -1.16836e-12 0)             (2.0663e-11 -1.45043e-12 0)             (2.03051e-11 -1.70537e-12 0)             (2.03051e-11 -1.70537e-12 0)             (1.98611e-11 -1.91773e-12 0)             (1.93262e-11 -2.08748e-12 0)             (1.93262e-11 -2.08748e-12 0)             (1.86969e-11 -2.22262e-12 0)             (1.79743e-11 -2.32799e-12 0)             (1.71631e-11 -2.41141e-12 0)             (1.71631e-11 -2.41141e-12 0)             (1.62685e-11 -2.47154e-12 0)             (1.52986e-11 -2.50076e-12 0)             (1.42623e-11 -2.5198e-12 0)             (1.31685e-11 -2.53649e-12 0)             (1.31685e-11 -2.53649e-12 0)             (1.20261e-11 -2.54414e-12 0)             (1.08437e-11 -2.55973e-12 0)             (9.62893e-12 -2.56897e-12 0)             (8.39e-12 -2.56851e-12 0)             (7.13175e-12 -2.54979e-12 0)             (7.13175e-12 -2.54979e-12 0)             (5.86501e-12 -2.5023e-12 0)             (4.59422e-12 -2.4513e-12 0)             (3.32642e-12 -2.41681e-12 0)             (2.06431e-12 -2.40186e-12 0)             (8.13607e-13 -2.3947e-12 0)             (-4.23398e-13 -2.39969e-12 0)             (-1.64356e-12 -2.41817e-12 0)             (-2.84402e-12 -2.43743e-12 0)             (-4.02158e-12 -2.4507e-12 0)             (-5.17452e-12 -2.45213e-12 0)             (-6.30194e-12 -2.43596e-12 0)             (-7.40057e-12 -2.4125e-12 0)             (-8.46959e-12 -2.41442e-12 0)             (-9.50449e-12 -2.41911e-12 0)             (-1.05024e-11 -2.40864e-12 0)             (-1.23798e-11 -2.3325e-12 0)             (-1.32562e-11 -2.25642e-12 0)             (-1.40907e-11 -2.17477e-12 0)             (-1.48819e-11 -2.09948e-12 0)             (-1.56328e-11 -2.02802e-12 0)             (-1.70129e-11 -1.88074e-12 0)             (-1.76445e-11 -1.80589e-12 0)             (-1.82372e-11 -1.73999e-12 0)             (-1.87931e-11 -1.66962e-12 0)             (-1.98112e-11 -1.52872e-12 0)             (-2.02718e-11 -1.45466e-12 0)             (-2.10914e-11 -1.30854e-12 0)             (-2.14523e-11 -1.23661e-12 0)             (-2.17824e-11 -1.16094e-12 0)             (-2.23522e-11 -1.012e-12 0)             (-2.28096e-11 -8.55459e-13 0)             (-2.29986e-11 -7.80106e-13 0)             (-2.33029e-11 -6.35209e-13 0)             (-2.34197e-11 -5.63259e-13 0)             (-2.35879e-11 -4.21024e-13 0)             (-2.36746e-11 -2.86543e-13 0)             (-2.36878e-11 -1.40729e-13 0)             (-2.36351e-11 -2.10632e-14 0)
          0.5             (1.52491e-11 2.79985e-12 0)             (1.49356e-11 4.90729e-12 0)             (1.49356e-11 4.90729e-12 0)             (1.44516e-11 3.84011e-12 0)             (1.44516e-11 3.84011e-12 0)             (1.40209e-11 2.98542e-12 0)             (1.35926e-11 2.13517e-12 0)             (1.35926e-11 2.13517e-12 0)             (1.31564e-11 1.54239e-12 0)             (1.26972e-11 1.25929e-12 0)             (1.26972e-11 1.25929e-12 0)             (1.2203e-11 1.2775e-12 0)             (1.2203e-11 1.2775e-12 0)             (1.16724e-11 1.54021e-12 0)             (1.11063e-11 1.98177e-12 0)             (1.11063e-11 1.98177e-12 0)             (1.05109e-11 2.54319e-12 0)             (9.89225e-12 3.1868e-12 0)             (9.26148e-12 3.87687e-12 0)             (9.26148e-12 3.87687e-12 0)             (8.62439e-12 4.59013e-12 0)             (7.9911e-12 5.31583e-12 0)             (7.9911e-12 5.31583e-12 0)             (7.36736e-12 6.02688e-12 0)             (6.75916e-12 6.71348e-12 0)             (6.1706e-12 7.37277e-12 0)             (6.1706e-12 7.37277e-12 0)             (5.60298e-12 7.99368e-12 0)             (5.05915e-12 8.56058e-12 0)             (4.54029e-12 9.07153e-12 0)             (4.04678e-12 9.52844e-12 0)             (4.04678e-12 9.52844e-12 0)             (3.57944e-12 9.92733e-12 0)             (3.14034e-12 1.02821e-11 0)             (2.72918e-12 1.05909e-11 0)             (2.34717e-12 1.0827e-11 0)             (1.99427e-12 1.09819e-11 0)             (1.99427e-12 1.09819e-11 0)             (1.66776e-12 1.10841e-11 0)             (1.36598e-12 1.11415e-11 0)             (1.08677e-12 1.11504e-11 0)             (8.28263e-13 1.10962e-11 0)             (5.91124e-13 1.10054e-11 0)             (3.71499e-13 1.09193e-11 0)             (1.67381e-13 1.08274e-11 0)             (-2.45827e-14 1.07258e-11 0)             (-2.06547e-13 1.06034e-11 0)             (-3.81063e-13 1.04592e-11 0)             (-5.47341e-13 1.03073e-11 0)             (-7.06765e-13 1.01486e-11 0)             (-8.6158e-13 9.97793e-12 0)             (-1.01145e-12 9.80128e-12 0)             (-1.15601e-12 9.61178e-12 0)             (-1.43562e-12 9.18328e-12 0)             (-1.57149e-12 8.94888e-12 0)             (-1.70346e-12 8.70915e-12 0)             (-1.8323e-12 8.44603e-12 0)             (-1.95863e-12 8.15705e-12 0)             (-2.19823e-12 7.52091e-12 0)             (-2.31119e-12 7.18131e-12 0)             (-2.41789e-12 6.82062e-12 0)             (-2.51735e-12 6.4559e-12 0)             (-2.72537e-12 5.70408e-12 0)             (-2.82894e-12 5.33789e-12 0)             (-3.00813e-12 4.61132e-12 0)             (-3.08656e-12 4.25966e-12 0)             (-3.15723e-12 3.91483e-12 0)             (-3.27561e-12 3.23627e-12 0)             (-3.36482e-12 2.59348e-12 0)             (-3.39966e-12 2.28174e-12 0)             (-3.44756e-12 1.67523e-12 0)             (-3.46225e-12 1.39209e-12 0)             (-3.4722e-12 8.36305e-13 0)             (-3.45719e-12 3.35128e-13 0)             (-3.42082e-12 -1.45609e-13 0)             (-3.36505e-12 -6.94889e-13 0)
          0.6             (1.83951e-11 3.70814e-12 0)             (1.79003e-11 5.93711e-12 0)             (1.79003e-11 5.93711e-12 0)             (1.73741e-11 4.02809e-12 0)             (1.73741e-11 4.02809e-12 0)             (1.69353e-11 2.99782e-12 0)             (1.65039e-11 2.03471e-12 0)             (1.65039e-11 2.03471e-12 0)             (1.60563e-11 1.53645e-12 0)             (1.55692e-11 1.50035e-12 0)             (1.55692e-11 1.50035e-12 0)             (1.50263e-11 1.87126e-12 0)             (1.50263e-11 1.87126e-12 0)             (1.44274e-11 2.54326e-12 0)             (1.37766e-11 3.42598e-12 0)             (1.37766e-11 3.42598e-12 0)             (1.30841e-11 4.44492e-12 0)             (1.23601e-11 5.55505e-12 0)             (1.16187e-11 6.69808e-12 0)             (1.16187e-11 6.69808e-12 0)             (1.08713e-11 7.83872e-12 0)             (1.01297e-11 8.95886e-12 0)             (1.01297e-11 8.95886e-12 0)             (9.40226e-12 1.0018e-11 0)             (8.69897e-12 1.10056e-11 0)             (8.02538e-12 1.19078e-11 0)             (8.02538e-12 1.19078e-11 0)             (7.38619e-12 1.27135e-11 0)             (6.78602e-12 1.34345e-11 0)             (6.22364e-12 1.40735e-11 0)             (5.69994e-12 1.46196e-11 0)             (5.69994e-12 1.46196e-11 0)             (5.21509e-12 1.50653e-11 0)             (4.76825e-12 1.53946e-11 0)             (4.35935e-12 1.5599e-11 0)             (3.99125e-12 1.56911e-11 0)             (3.65999e-12 1.57053e-11 0)             (3.65999e-12 1.57053e-11 0)             (3.36293e-12 1.56618e-11 0)             (3.09948e-12 1.55586e-11 0)             (2.86475e-12 1.54009e-11 0)             (2.65824e-12 1.51901e-11 0)             (2.47665e-12 1.49559e-11 0)             (2.31601e-12 1.47269e-11 0)             (2.1723e-12 1.44854e-11 0)             (2.04313e-12 1.42216e-11 0)             (1.92696e-12 1.39482e-11 0)             (1.82043e-12 1.36651e-11 0)             (1.72399e-12 1.33702e-11 0)             (1.63586e-12 1.30583e-11 0)             (1.55556e-12 1.27351e-11 0)             (1.48196e-12 1.24005e-11 0)             (1.4169e-12 1.20532e-11 0)             (1.30505e-12 1.13271e-11 0)             (1.25641e-12 1.09501e-11 0)             (1.2115e-12 1.05617e-11 0)             (1.16977e-12 1.01578e-11 0)             (1.12947e-12 9.7459e-12 0)             (1.05773e-12 8.90856e-12 0)             (1.02545e-12 8.48788e-12 0)             (9.9554e-13 8.06897e-12 0)             (9.69128e-13 7.65051e-12 0)             (8.78778e-13 6.79581e-12 0)             (8.23474e-13 6.37488e-12 0)             (7.29895e-13 5.52999e-12 0)             (6.89265e-13 5.10766e-12 0)             (6.54524e-13 4.68435e-12 0)             (5.99256e-13 3.86114e-12 0)             (5.64706e-13 3.07329e-12 0)             (5.55598e-13 2.67815e-12 0)             (5.53251e-13 1.92461e-12 0)             (5.58555e-13 1.55612e-12 0)             (5.87678e-13 8.69181e-13 0)             (6.37927e-13 1.90687e-13 0)             (7.0704e-13 -3.97539e-13 0)             (7.94808e-13 -1.1555e-12 0)
          0.7             (1.98139e-11 4.22287e-12 0)             (1.92367e-11 6.43276e-12 0)             (1.92367e-11 6.43276e-12 0)             (1.87421e-11 3.89086e-12 0)             (1.87421e-11 3.89086e-12 0)             (1.83448e-11 2.73542e-12 0)             (1.79556e-11 1.83744e-12 0)             (1.79556e-11 1.83744e-12 0)             (1.75415e-11 1.62625e-12 0)             (1.7077e-11 2.00789e-12 0)             (1.7077e-11 2.00789e-12 0)             (1.65464e-11 2.84901e-12 0)             (1.65464e-11 2.84901e-12 0)             (1.59533e-11 4.02417e-12 0)             (1.53046e-11 5.41818e-12 0)             (1.53046e-11 5.41818e-12 0)             (1.46133e-11 6.91843e-12 0)             (1.38934e-11 8.45668e-12 0)             (1.31601e-11 9.9721e-12 0)             (1.31601e-11 9.9721e-12 0)             (1.24257e-11 1.14094e-11 0)             (1.17036e-11 1.2744e-11 0)             (1.17036e-11 1.2744e-11 0)             (1.09994e-11 1.39488e-11 0)             (1.03219e-11 1.50109e-11 0)             (9.67557e-12 1.59323e-11 0)             (9.67557e-12 1.59323e-11 0)             (9.06334e-12 1.671e-11 0)             (8.48703e-12 1.7349e-11 0)             (7.94494e-12 1.78547e-11 0)             (7.43782e-12 1.8233e-11 0)             (7.43782e-12 1.8233e-11 0)             (6.96449e-12 1.85022e-11 0)             (6.52518e-12 1.86626e-11 0)             (6.11551e-12 1.87285e-11 0)             (5.73521e-12 1.87036e-11 0)             (5.3823e-12 1.85934e-11 0)             (5.3823e-12 1.85934e-11 0)             (5.05557e-12 1.84161e-11 0)             (4.75336e-12 1.81738e-11 0)             (4.47459e-12 1.78621e-11 0)             (4.21896e-12 1.7491e-11 0)             (3.98486e-12 1.70841e-11 0)             (3.77012e-12 1.66719e-11 0)             (3.57257e-12 1.62586e-11 0)             (3.39057e-12 1.58371e-11 0)             (3.22169e-12 1.54111e-11 0)             (3.06291e-12 1.49898e-11 0)             (2.91742e-12 1.45606e-11 0)             (2.78146e-12 1.4117e-11 0)             (2.65614e-12 1.36777e-11 0)             (2.54108e-12 1.32258e-11 0)             (2.43666e-12 1.27643e-11 0)             (2.25584e-12 1.18419e-11 0)             (2.17668e-12 1.13769e-11 0)             (2.10421e-12 1.09114e-11 0)             (2.03797e-12 1.04404e-11 0)             (1.97514e-12 9.96461e-12 0)             (1.86459e-12 9.02707e-12 0)             (1.81441e-12 8.56226e-12 0)             (1.76956e-12 8.10001e-12 0)             (1.72968e-12 7.64119e-12 0)             (1.60515e-12 6.72683e-12 0)             (1.53087e-12 6.2682e-12 0)             (1.40542e-12 5.38333e-12 0)             (1.35237e-12 4.94741e-12 0)             (1.30703e-12 4.50494e-12 0)             (1.23447e-12 3.6639e-12 0)             (1.1883e-12 2.83999e-12 0)             (1.1744e-12 2.44325e-12 0)             (1.16565e-12 1.68857e-12 0)             (1.16887e-12 1.32275e-12 0)             (1.19733e-12 6.43754e-13 0)             (1.25028e-12 1.74431e-14 0)             (1.32755e-12 -5.47301e-13 0)             (1.42706e-12 -1.2814e-12 0)
          0.8             (2.14389e-11 4.69232e-12 0)             (2.09337e-11 6.89421e-12 0)             (2.09337e-11 6.89421e-12 0)             (2.05498e-11 3.84132e-12 0)             (2.05498e-11 3.84132e-12 0)             (2.02151e-11 2.6404e-12 0)             (1.98579e-11 1.86208e-12 0)             (1.98579e-11 1.86208e-12 0)             (1.94538e-11 1.96835e-12 0)             (1.89858e-11 2.73961e-12 0)             (1.89858e-11 2.73961e-12 0)             (1.84505e-11 3.9803e-12 0)             (1.84505e-11 3.9803e-12 0)             (1.78559e-11 5.52222e-12 0)             (1.72155e-11 7.21726e-12 0)             (1.72155e-11 7.21726e-12 0)             (1.65448e-11 8.95384e-12 0)             (1.58582e-11 1.06559e-11 0)             (1.51719e-11 1.22531e-11 0)             (1.51719e-11 1.22531e-11 0)             (1.4495e-11 1.37021e-11 0)             (1.38368e-11 1.49945e-11 0)             (1.38368e-11 1.49945e-11 0)             (1.32022e-11 1.61047e-11 0)             (1.25968e-11 1.70306e-11 0)             (1.20201e-11 1.77884e-11 0)             (1.20201e-11 1.77884e-11 0)             (1.14744e-11 1.83791e-11 0)             (1.09592e-11 1.88141e-11 0)             (1.04701e-11 1.91131e-11 0)             (1.00065e-11 1.92863e-11 0)             (1.00065e-11 1.92863e-11 0)             (9.56985e-12 1.93408e-11 0)             (9.15599e-12 1.92969e-11 0)             (8.76322e-12 1.91522e-11 0)             (8.39304e-12 1.89219e-11 0)             (8.04181e-12 1.86238e-11 0)             (8.04181e-12 1.86238e-11 0)             (7.7114e-12 1.82573e-11 0)             (7.39952e-12 1.78398e-11 0)             (7.10702e-12 1.73839e-11 0)             (6.82793e-12 1.68907e-11 0)             (6.56365e-12 1.63746e-11 0)             (6.3101e-12 1.58501e-11 0)             (6.06276e-12 1.53212e-11 0)             (5.82086e-12 1.48026e-11 0)             (5.58105e-12 1.42968e-11 0)             (5.33809e-12 1.38101e-11 0)             (5.0933e-12 1.33334e-11 0)             (4.8442e-12 1.28618e-11 0)             (4.59401e-12 1.23899e-11 0)             (4.34323e-12 1.19204e-11 0)             (4.09654e-12 1.14615e-11 0)             (3.61615e-12 1.05609e-11 0)             (3.38514e-12 1.01245e-11 0)             (3.16168e-12 9.70911e-12 0)             (2.94597e-12 9.29112e-12 0)             (2.73784e-12 8.87101e-12 0)             (2.34568e-12 8.01796e-12 0)             (2.16141e-12 7.59459e-12 0)             (1.98625e-12 7.17313e-12 0)             (1.82311e-12 6.75807e-12 0)             (1.45129e-12 5.91953e-12 0)             (1.25599e-12 5.50848e-12 0)             (9.08461e-13 4.69839e-12 0)             (7.54639e-13 4.29695e-12 0)             (6.13181e-13 3.90703e-12 0)             (3.6958e-13 3.14466e-12 0)             (1.76472e-13 2.4165e-12 0)             (9.9009e-14 2.0649e-12 0)             (-2.02105e-14 1.36979e-12 0)             (-6.23816e-14 1.04661e-12 0)             (-1.12032e-13 4.40429e-13 0)             (-1.17362e-13 -1.28463e-13 0)             (-8.14624e-14 -6.60982e-13 0)             (-5.06597e-15 -1.37786e-12 0)