# Probe 0 (15.31 -0.61 0)
# Probe 1 (15.31 -0.6 0)
# Probe 2 (15.31 -0.59 0)
# Probe 3 (15.31 -0.58 0)
# Probe 4 (15.31 -0.57 0)
# Probe 5 (15.31 -0.56 0)
# Probe 6 (15.31 -0.55 0)
# Probe 7 (15.31 -0.54 0)
# Probe 8 (15.31 -0.53 0)
# Probe 9 (15.31 -0.52 0)
# Probe 10 (15.31 -0.51 0)
# Probe 11 (15.31 -0.5 0)
# Probe 12 (15.31 -0.49 0)
# Probe 13 (15.31 -0.48 0)
# Probe 14 (15.31 -0.47 0)
# Probe 15 (15.31 -0.46 0)
# Probe 16 (15.31 -0.45 0)
# Probe 17 (15.31 -0.44 0)
# Probe 18 (15.31 -0.43 0)
# Probe 19 (15.31 -0.42 0)
# Probe 20 (15.31 -0.41 0)
# Probe 21 (15.31 -0.4 0)
# Probe 22 (15.31 -0.39 0)
# Probe 23 (15.31 -0.38 0)
# Probe 24 (15.31 -0.37 0)
# Probe 25 (15.31 -0.36 0)
# Probe 26 (15.31 -0.35 0)
# Probe 27 (15.31 -0.34 0)
# Probe 28 (15.31 -0.33 0)
# Probe 29 (15.31 -0.32 0)
# Probe 30 (15.31 -0.31 0)
# Probe 31 (15.31 -0.3 0)
# Probe 32 (15.31 -0.29 0)
# Probe 33 (15.31 -0.28 0)
# Probe 34 (15.31 -0.27 0)
# Probe 35 (15.31 -0.26 0)
# Probe 36 (15.31 -0.25 0)
# Probe 37 (15.31 -0.24 0)
# Probe 38 (15.31 -0.23 0)
# Probe 39 (15.31 -0.22 0)
# Probe 40 (15.31 -0.21 0)
# Probe 41 (15.31 -0.2 0)
# Probe 42 (15.31 -0.19 0)
# Probe 43 (15.31 -0.18 0)
# Probe 44 (15.31 -0.17 0)
# Probe 45 (15.31 -0.16 0)
# Probe 46 (15.31 -0.15 0)
# Probe 47 (15.31 -0.14 0)
# Probe 48 (15.31 -0.13 0)
# Probe 49 (15.31 -0.12 0)
# Probe 50 (15.31 -0.11 0)
# Probe 51 (15.31 -0.1 0)
# Probe 52 (15.31 -0.09 0)
# Probe 53 (15.31 -0.08 0)
# Probe 54 (15.31 -0.07 0)
# Probe 55 (15.31 -0.06 0)
# Probe 56 (15.31 -0.05 0)
# Probe 57 (15.31 -0.04 0)
# Probe 58 (15.31 -0.03 0)
# Probe 59 (15.31 -0.02 0)
# Probe 60 (15.31 -0.01 0)
# Probe 61 (15.31 0 0)
# Probe 62 (15.31 0.01 0)
# Probe 63 (15.31 0.02 0)
# Probe 64 (15.31 0.03 0)
# Probe 65 (15.31 0.04 0)
# Probe 66 (15.31 0.05 0)
# Probe 67 (15.31 0.06 0)
# Probe 68 (15.31 0.07 0)
# Probe 69 (15.31 0.08 0)
# Probe 70 (15.31 0.09 0)
# Probe 71 (15.31 0.1 0)
# Probe 72 (15.31 0.11 0)
# Probe 73 (15.31 0.12 0)
# Probe 74 (15.31 0.13 0)
# Probe 75 (15.31 0.14 0)
#       Probe             0             1             2             3             4             5             6             7             8             9            10            11            12            13            14            15            16            17            18            19            20            21            22            23            24            25            26            27            28            29            30            31            32            33            34            35            36            37            38            39            40            41            42            43            44            45            46            47            48            49            50            51            52            53            54            55            56            57            58            59            60            61            62            63            64            65            66            67            68            69            70            71            72            73            74            75
#        Time
          0.1             (1.94604e-11 3.13433e-13 0)             (1.94604e-11 3.13433e-13 0)             (1.95553e-11 -1.94529e-14 0)             (1.95553e-11 -1.94529e-14 0)             (1.95553e-11 -1.94529e-14 0)             (1.96418e-11 -1.71377e-12 0)             (1.96418e-11 -1.71377e-12 0)             (1.94634e-11 -3.02717e-12 0)             (1.94634e-11 -3.02717e-12 0)             (1.87813e-11 -3.31575e-12 0)             (1.87813e-11 -3.31575e-12 0)             (1.77077e-11 -3.37022e-12 0)             (1.77077e-11 -3.37022e-12 0)             (1.77077e-11 -3.37022e-12 0)             (1.63656e-11 -3.55441e-12 0)             (1.63656e-11 -3.55441e-12 0)             (1.48566e-11 -3.96117e-12 0)             (1.48566e-11 -3.96117e-12 0)             (1.32584e-11 -4.55643e-12 0)             (1.32584e-11 -4.55643e-12 0)             (1.16213e-11 -5.27866e-12 0)             (1.16213e-11 -5.27866e-12 0)             (9.97835e-12 -6.0559e-12 0)             (9.97835e-12 -6.0559e-12 0)             (8.34599e-12 -6.81439e-12 0)             (6.73832e-12 -7.44641e-12 0)             (6.73832e-12 -7.44641e-12 0)             (5.17106e-12 -7.94565e-12 0)             (5.17106e-12 -7.94565e-12 0)             (3.64385e-12 -8.37746e-12 0)             (3.64385e-12 -8.37746e-12 0)             (2.15721e-12 -8.83431e-12 0)             (7.15899e-13 -9.34108e-12 0)             (7.15899e-13 -9.34108e-12 0)             (-6.91275e-13 -9.80553e-12 0)             (-2.06481e-12 -1.01997e-11 0)             (-2.06481e-12 -1.01997e-11 0)             (-3.40469e-12 -1.05382e-11 0)             (-4.71081e-12 -1.08223e-11 0)             (-4.71081e-12 -1.08223e-11 0)             (-5.98334e-12 -1.10545e-11 0)             (-7.22115e-12 -1.12436e-11 0)             (-8.42295e-12 -1.13847e-11 0)             (-8.42295e-12 -1.13847e-11 0)             (-9.58651e-12 -1.14767e-11 0)             (-1.07117e-11 -1.15311e-11 0)             (-1.17972e-11 -1.15409e-11 0)             (-1.28426e-11 -1.15116e-11 0)             (-1.38481e-11 -1.14519e-11 0)             (-1.48102e-11 -1.13532e-11 0)             (-1.57316e-11 -1.1221e-11 0)             (-1.66091e-11 -1.10762e-11 0)             (-1.74446e-11 -1.09075e-11 0)             (-1.82379e-11 -1.07069e-11 0)             (-1.89897e-11 -1.04955e-11 0)             (-1.96997e-11 -1.02659e-11 0)             (-2.03693e-11 -1.00188e-11 0)             (-2.10005e-11 -9.76663e-12 0)             (-2.15939e-11 -9.50238e-12 0)             (-2.26787e-11 -8.93753e-12 0)             (-2.31718e-11 -8.64962e-12 0)             (-2.36349e-11 -8.36042e-12 0)             (-2.44738e-11 -7.78444e-12 0)             (-2.48523e-11 -7.48741e-12 0)             (-2.55322e-11 -6.91401e-12 0)             (-2.61186e-11 -6.33127e-12 0)             (-2.63787e-11 -6.04431e-12 0)             (-2.68404e-11 -5.47382e-12 0)             (-2.72298e-11 -4.94389e-12 0)             (-2.75547e-11 -4.42164e-12 0)             (-2.7822e-11 -3.9453e-12 0)             (-2.81315e-11 -3.21261e-12 0)             (-2.82849e-11 -2.75187e-12 0)             (-2.84494e-11 -2.09987e-12 0)             (-2.85486e-11 -1.48824e-12 0)             (-2.86042e-11 -7.56167e-13 0)
          0.2             (3.31133e-11 3.89967e-12 0)             (3.31133e-11 3.89967e-12 0)             (3.21431e-11 3.65471e-12 0)             (3.21431e-11 3.65471e-12 0)             (3.21431e-11 3.65471e-12 0)             (3.0654e-11 1.25323e-13 0)             (3.0654e-11 1.25323e-13 0)             (2.87332e-11 1.04811e-12 0)             (2.87332e-11 1.04811e-12 0)             (2.69422e-11 1.57524e-12 0)             (2.69422e-11 1.57524e-12 0)             (2.53451e-11 1.75304e-12 0)             (2.53451e-11 1.75304e-12 0)             (2.53451e-11 1.75304e-12 0)             (2.38929e-11 1.40822e-12 0)             (2.38929e-11 1.40822e-12 0)             (2.25022e-11 6.17491e-13 0)             (2.25022e-11 6.17491e-13 0)             (2.10925e-11 -4.62398e-13 0)             (2.10925e-11 -4.62398e-13 0)             (1.96039e-11 -1.68214e-12 0)             (1.96039e-11 -1.68214e-12 0)             (1.80054e-11 -2.93169e-12 0)             (1.80054e-11 -2.93169e-12 0)             (1.62863e-11 -4.14339e-12 0)             (1.44501e-11 -5.28694e-12 0)             (1.44501e-11 -5.28694e-12 0)             (1.25149e-11 -6.34702e-12 0)             (1.25149e-11 -6.34702e-12 0)             (1.05033e-11 -7.31037e-12 0)             (1.05033e-11 -7.31037e-12 0)             (8.4359e-12 -8.17616e-12 0)             (6.33503e-12 -8.93933e-12 0)             (6.33503e-12 -8.93933e-12 0)             (4.21978e-12 -9.6024e-12 0)             (2.11029e-12 -1.01617e-11 0)             (2.11029e-12 -1.01617e-11 0)             (2.4218e-14 -1.06265e-11 0)             (-2.01959e-12 -1.10256e-11 0)             (-2.01959e-12 -1.10256e-11 0)             (-4.0105e-12 -1.13798e-11 0)             (-5.94133e-12 -1.16986e-11 0)             (-7.80696e-12 -1.19764e-11 0)             (-7.80696e-12 -1.19764e-11 0)             (-9.60318e-12 -1.22131e-11 0)             (-1.13263e-11 -1.24038e-11 0)             (-1.29738e-11 -1.25351e-11 0)             (-1.45454e-11 -1.26179e-11 0)             (-1.60404e-11 -1.26514e-11 0)             (-1.74602e-11 -1.26402e-11 0)             (-1.8805e-11 -1.25918e-11 0)             (-2.00765e-11 -1.24968e-11 0)             (-2.1277e-11 -1.23686e-11 0)             (-2.2408e-11 -1.22038e-11 0)             (-2.3472e-11 -1.20111e-11 0)             (-2.44714e-11 -1.18036e-11 0)             (-2.54095e-11 -1.15677e-11 0)             (-2.62888e-11 -1.13052e-11 0)             (-2.71116e-11 -1.10302e-11 0)             (-2.86011e-11 -1.04477e-11 0)             (-2.92715e-11 -1.01318e-11 0)             (-2.98974e-11 -9.81064e-12 0)             (-3.10259e-11 -9.1578e-12 0)             (-3.1529e-11 -8.81741e-12 0)             (-3.24257e-11 -8.13896e-12 0)             (-3.31876e-11 -7.4502e-12 0)             (-3.3523e-11 -7.0921e-12 0)             (-3.41108e-11 -6.39253e-12 0)             (-3.4599e-11 -5.73573e-12 0)             (-3.49998e-11 -5.10741e-12 0)             (-3.5323e-11 -4.46115e-12 0)             (-3.56851e-11 -3.5536e-12 0)             (-3.58565e-11 -2.96745e-12 0)             (-3.60285e-11 -2.13253e-12 0)             (-3.61176e-11 -1.36592e-12 0)             (-3.61358e-11 -4.28762e-13 0)
          0.3             (1.98109e-11 4.35525e-12 0)             (1.98109e-11 4.35525e-12 0)             (2.00969e-11 6.63878e-12 0)             (2.00969e-11 6.63878e-12 0)             (2.00969e-11 6.63878e-12 0)             (1.9127e-11 5.7571e-12 0)             (1.9127e-11 5.7571e-12 0)             (1.8277e-11 5.98227e-12 0)             (1.8277e-11 5.98227e-12 0)             (1.76542e-11 4.42733e-12 0)             (1.76542e-11 4.42733e-12 0)             (1.71652e-11 3.44998e-12 0)             (1.71652e-11 3.44998e-12 0)             (1.71652e-11 3.44998e-12 0)             (1.66993e-11 2.93358e-12 0)             (1.66993e-11 2.93358e-12 0)             (1.61644e-11 2.90319e-12 0)             (1.61644e-11 2.90319e-12 0)             (1.55078e-11 3.23074e-12 0)             (1.55078e-11 3.23074e-12 0)             (1.47119e-11 3.80237e-12 0)             (1.47119e-11 3.80237e-12 0)             (1.37838e-11 4.53324e-12 0)             (1.37838e-11 4.53324e-12 0)             (1.27403e-11 5.32891e-12 0)             (1.16081e-11 6.13092e-12 0)             (1.16081e-11 6.13092e-12 0)             (1.04107e-11 6.8942e-12 0)             (1.04107e-11 6.8942e-12 0)             (9.17414e-12 7.60592e-12 0)             (9.17414e-12 7.60592e-12 0)             (7.91973e-12 8.24113e-12 0)             (6.6678e-12 8.76411e-12 0)             (6.6678e-12 8.76411e-12 0)             (5.43614e-12 9.15791e-12 0)             (4.23678e-12 9.41122e-12 0)             (4.23678e-12 9.41122e-12 0)             (3.08318e-12 9.52171e-12 0)             (1.97955e-12 9.5008e-12 0)             (1.97955e-12 9.5008e-12 0)             (9.34252e-13 9.34215e-12 0)             (-5.27412e-14 9.05398e-12 0)             (-9.85827e-13 8.72777e-12 0)             (-9.85827e-13 8.72777e-12 0)             (-1.86583e-12 8.42145e-12 0)             (-2.69735e-12 8.11803e-12 0)             (-3.47764e-12 7.81601e-12 0)             (-4.20957e-12 7.51663e-12 0)             (-4.89461e-12 7.22243e-12 0)             (-5.53315e-12 6.93383e-12 0)             (-6.12845e-12 6.64614e-12 0)             (-6.68314e-12 6.3653e-12 0)             (-7.19745e-12 6.09089e-12 0)             (-7.67468e-12 5.81547e-12 0)             (-8.11685e-12 5.54801e-12 0)             (-8.52569e-12 5.2959e-12 0)             (-8.90368e-12 5.05423e-12 0)             (-9.25238e-12 4.81729e-12 0)             (-9.57355e-12 4.58055e-12 0)             (-1.01419e-11 4.12968e-12 0)             (-1.03908e-11 3.91995e-12 0)             (-1.06242e-11 3.71824e-12 0)             (-1.10482e-11 3.33214e-12 0)             (-1.12335e-11 3.1362e-12 0)             (-1.15528e-11 2.79891e-12 0)             (-1.18142e-11 2.46254e-12 0)             (-1.19244e-11 2.31306e-12 0)             (-1.21115e-11 2.04103e-12 0)             (-1.22579e-11 1.75774e-12 0)             (-1.23687e-11 1.48349e-12 0)             (-1.2449e-11 1.25316e-12 0)             (-1.25219e-11 9.42761e-13 0)             (-1.25451e-11 7.46078e-13 0)             (-1.25472e-11 5.07553e-13 0)             (-1.25187e-11 2.93759e-13 0)             (-1.24428e-11 3.55652e-14 0)
          0.4             (3.55581e-12 1.13094e-12 0)             (3.55581e-12 1.13094e-12 0)             (4.91123e-12 1.616e-12 0)             (4.91123e-12 1.616e-12 0)             (4.91123e-12 1.616e-12 0)             (5.23935e-12 2.83445e-12 0)             (5.23935e-12 2.83445e-12 0)             (5.72076e-12 4.53499e-12 0)             (5.72076e-12 4.53499e-12 0)             (5.82268e-12 4.77572e-12 0)             (5.82268e-12 4.77572e-12 0)             (5.6729e-12 5.66422e-12 0)             (5.6729e-12 5.66422e-12 0)             (5.6729e-12 5.66422e-12 0)             (5.3811e-12 6.77278e-12 0)             (5.3811e-12 6.77278e-12 0)             (5.03521e-12 8.08113e-12 0)             (5.03521e-12 8.08113e-12 0)             (4.69752e-12 9.42723e-12 0)             (4.69752e-12 9.42723e-12 0)             (4.40085e-12 1.07525e-11 0)             (4.40085e-12 1.07525e-11 0)             (4.15512e-12 1.20463e-11 0)             (4.15512e-12 1.20463e-11 0)             (3.95978e-12 1.32739e-11 0)             (3.80509e-12 1.44283e-11 0)             (3.80509e-12 1.44283e-11 0)             (3.68484e-12 1.54896e-11 0)             (3.68484e-12 1.54896e-11 0)             (3.58904e-12 1.6439e-11 0)             (3.58904e-12 1.6439e-11 0)             (3.51424e-12 1.72602e-11 0)             (3.45816e-12 1.7948e-11 0)             (3.45816e-12 1.7948e-11 0)             (3.4186e-12 1.8495e-11 0)             (3.39037e-12 1.89093e-11 0)             (3.39037e-12 1.89093e-11 0)             (3.37104e-12 1.91972e-11 0)             (3.355e-12 1.9366e-11 0)             (3.355e-12 1.9366e-11 0)             (3.33916e-12 1.94154e-11 0)             (3.32132e-12 1.93505e-11 0)             (3.29603e-12 1.91963e-11 0)             (3.29603e-12 1.91963e-11 0)             (3.26033e-12 1.89732e-11 0)             (3.21155e-12 1.87144e-11 0)             (3.15548e-12 1.8432e-11 0)             (3.09379e-12 1.81267e-11 0)             (3.02709e-12 1.77954e-11 0)             (2.95831e-12 1.74498e-11 0)             (2.88871e-12 1.70827e-11 0)             (2.81774e-12 1.66851e-11 0)             (2.74738e-12 1.62758e-11 0)             (2.67852e-12 1.58612e-11 0)             (2.60934e-12 1.54311e-11 0)             (2.54273e-12 1.49896e-11 0)             (2.47706e-12 1.45345e-11 0)             (2.41421e-12 1.40813e-11 0)             (2.35352e-12 1.36239e-11 0)             (2.23905e-12 1.26939e-11 0)             (2.18755e-12 1.22261e-11 0)             (2.13178e-12 1.17635e-11 0)             (1.99958e-12 1.08352e-11 0)             (1.93993e-12 1.03818e-11 0)             (1.83876e-12 9.4698e-12 0)             (1.75678e-12 8.59346e-12 0)             (1.72414e-12 8.1743e-12 0)             (1.67136e-12 7.35766e-12 0)             (1.63541e-12 6.54941e-12 0)             (1.6157e-12 5.78002e-12 0)             (1.60999e-12 5.04899e-12 0)             (1.62707e-12 4.04442e-12 0)             (1.65187e-12 3.41237e-12 0)             (1.70767e-12 2.53339e-12 0)             (1.78338e-12 1.74002e-12 0)             (1.90798e-12 7.7872e-13 0)
          0.5             (4.0607e-12 -1.59232e-12 0)             (4.0607e-12 -1.59232e-12 0)             (5.74064e-12 6.71015e-13 0)             (5.74064e-12 6.71015e-13 0)             (5.74064e-12 6.71015e-13 0)             (6.48618e-12 4.8306e-12 0)             (6.48618e-12 4.8306e-12 0)             (7.04042e-12 5.01524e-12 0)             (7.04042e-12 5.01524e-12 0)             (6.96306e-12 5.46457e-12 0)             (6.96306e-12 5.46457e-12 0)             (6.55923e-12 6.69558e-12 0)             (6.55923e-12 6.69558e-12 0)             (6.55923e-12 6.69558e-12 0)             (5.99853e-12 8.14791e-12 0)             (5.99853e-12 8.14791e-12 0)             (5.42075e-12 9.75737e-12 0)             (5.42075e-12 9.75737e-12 0)             (4.91145e-12 1.13283e-11 0)             (4.91145e-12 1.13283e-11 0)             (4.5067e-12 1.27666e-11 0)             (4.5067e-12 1.27666e-11 0)             (4.21087e-12 1.40554e-11 0)             (4.21087e-12 1.40554e-11 0)             (4.01344e-12 1.51614e-11 0)             (3.89661e-12 1.60764e-11 0)             (3.89661e-12 1.60764e-11 0)             (3.84375e-12 1.68033e-11 0)             (3.84375e-12 1.68033e-11 0)             (3.83625e-12 1.73561e-11 0)             (3.83625e-12 1.73561e-11 0)             (3.85985e-12 1.77514e-11 0)             (3.90599e-12 1.8022e-11 0)             (3.90599e-12 1.8022e-11 0)             (3.96327e-12 1.81918e-11 0)             (4.02201e-12 1.82707e-11 0)             (4.02201e-12 1.82707e-11 0)             (4.07365e-12 1.82838e-11 0)             (4.1115e-12 1.82368e-11 0)             (4.1115e-12 1.82368e-11 0)             (4.13017e-12 1.81407e-11 0)             (4.1282e-12 1.8002e-11 0)             (4.10265e-12 1.78201e-11 0)             (4.10265e-12 1.78201e-11 0)             (4.05418e-12 1.76045e-11 0)             (3.98315e-12 1.73638e-11 0)             (3.89264e-12 1.70942e-11 0)             (3.7818e-12 1.68035e-11 0)             (3.65361e-12 1.6497e-11 0)             (3.51265e-12 1.61648e-11 0)             (3.36098e-12 1.58256e-11 0)             (3.20031e-12 1.54759e-11 0)             (3.03383e-12 1.51116e-11 0)             (2.86339e-12 1.47446e-11 0)             (2.68891e-12 1.43745e-11 0)             (2.51345e-12 1.40007e-11 0)             (2.33696e-12 1.36276e-11 0)             (2.16211e-12 1.32654e-11 0)             (1.98885e-12 1.28906e-11 0)             (1.65118e-12 1.21156e-11 0)             (1.49225e-12 1.17237e-11 0)             (1.32735e-12 1.13206e-11 0)             (9.71956e-13 1.0515e-11 0)             (8.0808e-13 1.01117e-11 0)             (5.14214e-13 9.2901e-12 0)             (2.62782e-13 8.49475e-12 0)             (1.53584e-13 8.08656e-12 0)             (-3.54296e-14 7.32635e-12 0)             (-1.85927e-13 6.57305e-12 0)             (-3.01652e-13 5.82472e-12 0)             (-3.83906e-13 5.12359e-12 0)             (-4.52391e-13 4.1352e-12 0)             (-4.65386e-13 3.53248e-12 0)             (-4.45177e-13 2.65454e-12 0)             (-3.81352e-13 1.81662e-12 0)             (-2.41305e-13 8.60843e-13 0)
          0.6             (7.50175e-12 -1.66362e-12 0)             (7.50175e-12 -1.66362e-12 0)             (9.50329e-12 1.67048e-12 0)             (9.50329e-12 1.67048e-12 0)             (9.50329e-12 1.67048e-12 0)             (1.04135e-11 5.95672e-12 0)             (1.04135e-11 5.95672e-12 0)             (1.08307e-11 5.43568e-12 0)             (1.08307e-11 5.43568e-12 0)             (1.04888e-11 6.36799e-12 0)             (1.04888e-11 6.36799e-12 0)             (9.83274e-12 7.94025e-12 0)             (9.83274e-12 7.94025e-12 0)             (9.83274e-12 7.94025e-12 0)             (9.07161e-12 9.68865e-12 0)             (9.07161e-12 9.68865e-12 0)             (8.36187e-12 1.15e-11 0)             (8.36187e-12 1.15e-11 0)             (7.77703e-12 1.31703e-11 0)             (7.77703e-12 1.31703e-11 0)             (7.33518e-12 1.46289e-11 0)             (7.33518e-12 1.46289e-11 0)             (7.02475e-12 1.58694e-11 0)             (7.02475e-12 1.58694e-11 0)             (6.82206e-12 1.68913e-11 0)             (6.70101e-12 1.7721e-11 0)             (6.70101e-12 1.7721e-11 0)             (6.63565e-12 1.83687e-11 0)             (6.63565e-12 1.83687e-11 0)             (6.59976e-12 1.88673e-11 0)             (6.59976e-12 1.88673e-11 0)             (6.5776e-12 1.92417e-11 0)             (6.55898e-12 1.95088e-11 0)             (6.55898e-12 1.95088e-11 0)             (6.5286e-12 1.96936e-11 0)             (6.47824e-12 1.98048e-11 0)             (6.47824e-12 1.98048e-11 0)             (6.4019e-12 1.98438e-11 0)             (6.29543e-12 1.98201e-11 0)             (6.29543e-12 1.98201e-11 0)             (6.15984e-12 1.97516e-11 0)             (5.99411e-12 1.96318e-11 0)             (5.79871e-12 1.94617e-11 0)             (5.79871e-12 1.94617e-11 0)             (5.57871e-12 1.92515e-11 0)             (5.33403e-12 1.90079e-11 0)             (5.07017e-12 1.87344e-11 0)             (4.78835e-12 1.842e-11 0)             (4.49283e-12 1.80846e-11 0)             (4.18806e-12 1.77369e-11 0)             (3.87758e-12 1.73594e-11 0)             (3.56404e-12 1.69656e-11 0)             (3.24903e-12 1.65585e-11 0)             (2.93711e-12 1.6143e-11 0)             (2.62704e-12 1.57222e-11 0)             (2.32342e-12 1.52817e-11 0)             (2.02474e-12 1.48475e-11 0)             (1.73422e-12 1.44137e-11 0)             (1.4527e-12 1.3975e-11 0)             (9.16003e-13 1.31069e-11 0)             (6.66475e-13 1.26701e-11 0)             (4.14291e-13 1.22193e-11 0)             (-1.20173e-13 1.13218e-11 0)             (-3.65749e-13 1.08736e-11 0)             (-8.043e-13 9.96735e-12 0)             (-1.17833e-12 9.09576e-12 0)             (-1.3413e-12 8.66372e-12 0)             (-1.6257e-12 7.83388e-12 0)             (-1.85363e-12 7.00205e-12 0)             (-2.03038e-12 6.19305e-12 0)             (-2.16012e-12 5.4391e-12 0)             (-2.27849e-12 4.37794e-12 0)             (-2.31106e-12 3.72798e-12 0)             (-2.30444e-12 2.79834e-12 0)             (-2.23822e-12 1.94481e-12 0)             (-2.07809e-12 9.28552e-13 0)
          0.7             (1.11377e-11 -1.30737e-12 0)             (1.11377e-11 -1.30737e-12 0)             (1.34269e-11 2.80433e-12 0)             (1.34269e-11 2.80433e-12 0)             (1.34269e-11 2.80433e-12 0)             (1.4392e-11 6.68731e-12 0)             (1.4392e-11 6.68731e-12 0)             (1.45347e-11 5.69471e-12 0)             (1.45347e-11 5.69471e-12 0)             (1.38374e-11 7.10587e-12 0)             (1.38374e-11 7.10587e-12 0)             (1.29152e-11 8.89807e-12 0)             (1.29152e-11 8.89807e-12 0)             (1.29152e-11 8.89807e-12 0)             (1.20021e-11 1.07793e-11 0)             (1.20021e-11 1.07793e-11 0)             (1.12409e-11 1.26275e-11 0)             (1.12409e-11 1.26275e-11 0)             (1.06738e-11 1.42622e-11 0)             (1.06738e-11 1.42622e-11 0)             (1.02877e-11 1.56416e-11 0)             (1.02877e-11 1.56416e-11 0)             (1.00445e-11 1.67979e-11 0)             (1.00445e-11 1.67979e-11 0)             (9.90305e-12 1.77494e-11 0)             (9.81763e-12 1.85216e-11 0)             (9.81763e-12 1.85216e-11 0)             (9.75689e-12 1.91423e-11 0)             (9.75689e-12 1.91423e-11 0)             (9.69071e-12 1.96389e-11 0)             (9.69071e-12 1.96389e-11 0)             (9.6038e-12 2.00269e-11 0)             (9.48681e-12 2.03295e-11 0)             (9.48681e-12 2.03295e-11 0)             (9.32883e-12 2.05538e-11 0)             (9.12515e-12 2.07058e-11 0)             (9.12515e-12 2.07058e-11 0)             (8.8753e-12 2.07944e-11 0)             (8.57911e-12 2.08314e-11 0)             (8.57911e-12 2.08314e-11 0)             (8.23941e-12 2.08116e-11 0)             (7.86091e-12 2.07364e-11 0)             (7.44643e-12 2.0621e-11 0)             (7.44643e-12 2.0621e-11 0)             (7.00358e-12 2.04698e-11 0)             (6.53463e-12 2.02739e-11 0)             (6.04953e-12 2.00371e-11 0)             (5.55056e-12 1.97708e-11 0)             (5.0449e-12 1.9475e-11 0)             (4.53981e-12 1.91423e-11 0)             (4.03658e-12 1.87735e-11 0)             (3.53976e-12 1.83801e-11 0)             (3.05196e-12 1.7952e-11 0)             (2.57589e-12 1.74873e-11 0)             (2.11368e-12 1.69964e-11 0)             (1.66689e-12 1.64821e-11 0)             (1.23827e-12 1.59515e-11 0)             (8.27543e-13 1.54238e-11 0)             (4.36175e-13 1.48958e-11 0)             (-2.92137e-13 1.3855e-11 0)             (-6.22927e-13 1.33304e-11 0)             (-9.54482e-13 1.28245e-11 0)             (-1.64864e-12 1.18012e-11 0)             (-1.96412e-12 1.13054e-11 0)             (-2.52722e-12 1.03336e-11 0)             (-3.00292e-12 9.38819e-12 0)             (-3.2093e-12 8.93082e-12 0)             (-3.56654e-12 8.04524e-12 0)             (-3.85222e-12 7.18374e-12 0)             (-4.07425e-12 6.34686e-12 0)             (-4.23776e-12 5.57636e-12 0)             (-4.38783e-12 4.48797e-12 0)             (-4.43129e-12 3.80457e-12 0)             (-4.42674e-12 2.84979e-12 0)             (-4.35002e-12 2.00707e-12 0)             (-4.15871e-12 9.81687e-13 0)
          0.8             (1.59141e-11 -4.69083e-13 0)             (1.59141e-11 -4.69083e-13 0)             (1.84883e-11 4.51864e-12 0)             (1.84883e-11 4.51864e-12 0)             (1.84883e-11 4.51864e-12 0)             (1.93902e-11 7.74436e-12 0)             (1.93902e-11 7.74436e-12 0)             (1.91285e-11 6.35461e-12 0)             (1.91285e-11 6.35461e-12 0)             (1.80258e-11 8.2028e-12 0)             (1.80258e-11 8.2028e-12 0)             (1.68449e-11 1.02766e-11 0)             (1.68449e-11 1.02766e-11 0)             (1.68449e-11 1.02766e-11 0)             (1.58184e-11 1.23948e-11 0)             (1.58184e-11 1.23948e-11 0)             (1.50613e-11 1.43906e-11 0)             (1.50613e-11 1.43906e-11 0)             (1.45699e-11 1.61098e-11 0)             (1.45699e-11 1.61098e-11 0)             (1.42891e-11 1.7534e-11 0)             (1.42891e-11 1.7534e-11 0)             (1.41475e-11 1.8724e-11 0)             (1.41475e-11 1.8724e-11 0)             (1.4079e-11 1.97144e-11 0)             (1.40286e-11 2.05514e-11 0)             (1.40286e-11 2.05514e-11 0)             (1.39537e-11 2.12703e-11 0)             (1.39537e-11 2.12703e-11 0)             (1.38247e-11 2.18839e-11 0)             (1.38247e-11 2.18839e-11 0)             (1.36265e-11 2.24302e-11 0)             (1.33529e-11 2.29233e-11 0)             (1.33529e-11 2.29233e-11 0)             (1.29981e-11 2.33632e-11 0)             (1.25635e-11 2.37718e-11 0)             (1.25635e-11 2.37718e-11 0)             (1.2052e-11 2.41527e-11 0)             (1.14706e-11 2.44946e-11 0)             (1.14706e-11 2.44946e-11 0)             (1.08271e-11 2.47889e-11 0)             (1.0133e-11 2.50279e-11 0)             (9.39515e-12 2.51992e-11 0)             (9.39515e-12 2.51992e-11 0)             (8.62946e-12 2.52848e-11 0)             (7.84381e-12 2.52793e-11 0)             (7.05219e-12 2.51712e-11 0)             (6.26368e-12 2.49256e-11 0)             (5.48909e-12 2.45787e-11 0)             (4.73875e-12 2.41595e-11 0)             (4.0183e-12 2.36752e-11 0)             (3.32793e-12 2.3139e-11 0)             (2.6719e-12 2.25364e-11 0)             (2.04933e-12 2.18852e-11 0)             (1.45965e-12 2.12131e-11 0)             (9.05213e-13 2.0543e-11 0)             (3.81771e-13 1.98992e-11 0)             (-1.09364e-13 1.92693e-11 0)             (-5.68976e-13 1.86353e-11 0)             (-1.40268e-12 1.73776e-11 0)             (-1.77377e-12 1.67667e-11 0)             (-2.14268e-12 1.61499e-11 0)             (-2.92221e-12 1.4914e-11 0)             (-3.27471e-12 1.42991e-11 0)             (-3.89532e-12 1.30921e-11 0)             (-4.41544e-12 1.19158e-11 0)             (-4.63822e-12 1.13369e-11 0)             (-5.0209e-12 1.02187e-11 0)             (-5.32299e-12 9.12055e-12 0)             (-5.55282e-12 8.04841e-12 0)             (-5.71707e-12 7.04148e-12 0)             (-5.85795e-12 5.62091e-12 0)             (-5.89038e-12 4.74279e-12 0)             (-5.8635e-12 3.48059e-12 0)             (-5.75982e-12 2.34327e-12 0)             (-5.52746e-12 9.93134e-13 0)