# Probe 0 (15.31 -0.61 0)
# Probe 1 (15.31 -0.6 0)
# Probe 2 (15.31 -0.59 0)
# Probe 3 (15.31 -0.58 0)
# Probe 4 (15.31 -0.57 0)
# Probe 5 (15.31 -0.56 0)
# Probe 6 (15.31 -0.55 0)
# Probe 7 (15.31 -0.54 0)
# Probe 8 (15.31 -0.53 0)
# Probe 9 (15.31 -0.52 0)
# Probe 10 (15.31 -0.51 0)
# Probe 11 (15.31 -0.5 0)
# Probe 12 (15.31 -0.49 0)
# Probe 13 (15.31 -0.48 0)
# Probe 14 (15.31 -0.47 0)
# Probe 15 (15.31 -0.46 0)
# Probe 16 (15.31 -0.45 0)
# Probe 17 (15.31 -0.44 0)
# Probe 18 (15.31 -0.43 0)
# Probe 19 (15.31 -0.42 0)
# Probe 20 (15.31 -0.41 0)
# Probe 21 (15.31 -0.4 0)
# Probe 22 (15.31 -0.39 0)
# Probe 23 (15.31 -0.38 0)
# Probe 24 (15.31 -0.37 0)
# Probe 25 (15.31 -0.36 0)
# Probe 26 (15.31 -0.35 0)
# Probe 27 (15.31 -0.34 0)
# Probe 28 (15.31 -0.33 0)
# Probe 29 (15.31 -0.32 0)
# Probe 30 (15.31 -0.31 0)
# Probe 31 (15.31 -0.3 0)
# Probe 32 (15.31 -0.29 0)
# Probe 33 (15.31 -0.28 0)
# Probe 34 (15.31 -0.27 0)
# Probe 35 (15.31 -0.26 0)
# Probe 36 (15.31 -0.25 0)
# Probe 37 (15.31 -0.24 0)
# Probe 38 (15.31 -0.23 0)
# Probe 39 (15.31 -0.22 0)
# Probe 40 (15.31 -0.21 0)
# Probe 41 (15.31 -0.2 0)
# Probe 42 (15.31 -0.19 0)
# Probe 43 (15.31 -0.18 0)
# Probe 44 (15.31 -0.17 0)
# Probe 45 (15.31 -0.16 0)
# Probe 46 (15.31 -0.15 0)
# Probe 47 (15.31 -0.14 0)
# Probe 48 (15.31 -0.13 0)
# Probe 49 (15.31 -0.12 0)
# Probe 50 (15.31 -0.11 0)
# Probe 51 (15.31 -0.1 0)
# Probe 52 (15.31 -0.09 0)
# Probe 53 (15.31 -0.08 0)
# Probe 54 (15.31 -0.07 0)
# Probe 55 (15.31 -0.06 0)
# Probe 56 (15.31 -0.05 0)
# Probe 57 (15.31 -0.04 0)
# Probe 58 (15.31 -0.03 0)
# Probe 59 (15.31 -0.02 0)
# Probe 60 (15.31 -0.01 0)
# Probe 61 (15.31 0 0)
# Probe 62 (15.31 0.01 0)
# Probe 63 (15.31 0.02 0)
# Probe 64 (15.31 0.03 0)
# Probe 65 (15.31 0.04 0)
# Probe 66 (15.31 0.05 0)
# Probe 67 (15.31 0.06 0)
# Probe 68 (15.31 0.07 0)
# Probe 69 (15.31 0.08 0)
# Probe 70 (15.31 0.09 0)
# Probe 71 (15.31 0.1 0)
# Probe 72 (15.31 0.11 0)
# Probe 73 (15.31 0.12 0)
# Probe 74 (15.31 0.13 0)
# Probe 75 (15.31 0.14 0)
#       Probe             0             1             2             3             4             5             6             7             8             9            10            11            12            13            14            15            16            17            18            19            20            21            22            23            24            25            26            27            28            29            30            31            32            33            34            35            36            37            38            39            40            41            42            43            44            45            46            47            48            49            50            51            52            53            54            55            56            57            58            59            60            61            62            63            64            65            66            67            68            69            70            71            72            73            74            75
#        Time
          0.1             (1.08486e-11 -1.73182e-12 0)             (1.02124e-11 -3.24215e-12 0)             (1.02124e-11 -3.24215e-12 0)             (9.89746e-12 -2.86746e-12 0)             (9.89746e-12 -2.86746e-12 0)             (9.76342e-12 -2.42096e-12 0)             (9.75715e-12 -1.80634e-12 0)             (9.75715e-12 -1.80634e-12 0)             (9.84716e-12 -1.16741e-12 0)             (1.00004e-11 -5.61335e-13 0)             (1.00004e-11 -5.61335e-13 0)             (1.0189e-11 -5.10488e-14 0)             (1.0189e-11 -5.10488e-14 0)             (1.03899e-11 3.15897e-13 0)             (1.0584e-11 5.32588e-13 0)             (1.0584e-11 5.32588e-13 0)             (1.0756e-11 6.03578e-13 0)             (1.08935e-11 5.31913e-13 0)             (1.09882e-11 3.39774e-13 0)             (1.09882e-11 3.39774e-13 0)             (1.10349e-11 6.21247e-14 0)             (1.10294e-11 -2.80439e-13 0)             (1.10294e-11 -2.80439e-13 0)             (1.09713e-11 -6.4838e-13 0)             (1.0861e-11 -1.02654e-12 0)             (1.07e-11 -1.41952e-12 0)             (1.07e-11 -1.41952e-12 0)             (1.04912e-11 -1.81475e-12 0)             (1.02368e-11 -2.22227e-12 0)             (9.93906e-12 -2.63712e-12 0)             (9.60231e-12 -3.05245e-12 0)             (9.60231e-12 -3.05245e-12 0)             (9.22983e-12 -3.47229e-12 0)             (8.8233e-12 -3.87583e-12 0)             (8.38688e-12 -4.2483e-12 0)             (7.92097e-12 -4.60136e-12 0)             (7.42822e-12 -4.93025e-12 0)             (7.42822e-12 -4.93025e-12 0)             (6.91199e-12 -5.2351e-12 0)             (6.37496e-12 -5.52093e-12 0)             (5.81813e-12 -5.79301e-12 0)             (5.24676e-12 -6.05525e-12 0)             (4.66597e-12 -6.30313e-12 0)             (4.07827e-12 -6.52756e-12 0)             (3.48761e-12 -6.72088e-12 0)             (2.89749e-12 -6.90649e-12 0)             (2.31183e-12 -7.10588e-12 0)             (1.73258e-12 -7.30368e-12 0)             (1.16221e-12 -7.47448e-12 0)             (6.0145e-13 -7.63534e-12 0)             (5.07905e-14 -7.75516e-12 0)             (-4.88347e-13 -7.82816e-12 0)             (-1.01267e-12 -7.91466e-12 0)             (-2.00852e-12 -8.03417e-12 0)             (-2.47991e-12 -8.04589e-12 0)             (-2.93441e-12 -8.01864e-12 0)             (-3.37154e-12 -7.96346e-12 0)             (-3.78998e-12 -7.87306e-12 0)             (-4.57117e-12 -7.60914e-12 0)             (-4.93249e-12 -7.44582e-12 0)             (-5.27598e-12 -7.26667e-12 0)             (-5.59938e-12 -7.06547e-12 0)             (-6.19315e-12 -6.65031e-12 0)             (-6.46273e-12 -6.42316e-12 0)             (-6.94836e-12 -5.94494e-12 0)             (-7.16562e-12 -5.68943e-12 0)             (-7.36675e-12 -5.44406e-12 0)             (-7.72061e-12 -4.92183e-12 0)             (-8.0144e-12 -4.38887e-12 0)             (-8.13976e-12 -4.12015e-12 0)             (-8.34987e-12 -3.55728e-12 0)             (-8.4355e-12 -3.28479e-12 0)             (-8.57092e-12 -2.7226e-12 0)             (-8.66157e-12 -2.16019e-12 0)             (-8.71066e-12 -1.58711e-12 0)             (-8.72362e-12 -1.12039e-12 0)
          0.2             (2.11307e-11 2.22997e-13 0)             (2.17832e-11 9.34502e-13 0)             (2.17832e-11 9.34502e-13 0)             (2.25669e-11 1.51236e-12 0)             (2.25669e-11 1.51236e-12 0)             (2.33721e-11 1.74552e-12 0)             (2.41915e-11 2.01611e-12 0)             (2.41915e-11 2.01611e-12 0)             (2.49972e-11 2.31296e-12 0)             (2.57745e-11 2.69552e-12 0)             (2.57745e-11 2.69552e-12 0)             (2.65191e-11 3.14521e-12 0)             (2.65191e-11 3.14521e-12 0)             (2.72274e-11 3.63546e-12 0)             (2.79001e-11 4.12345e-12 0)             (2.79001e-11 4.12345e-12 0)             (2.85412e-11 4.55832e-12 0)             (2.91577e-11 4.94245e-12 0)             (2.97539e-11 5.30743e-12 0)             (2.97539e-11 5.30743e-12 0)             (3.03298e-11 5.67691e-12 0)             (3.08843e-11 6.05395e-12 0)             (3.08843e-11 6.05395e-12 0)             (3.14128e-11 6.43848e-12 0)             (3.19144e-11 6.83254e-12 0)             (3.23878e-11 7.22281e-12 0)             (3.23878e-11 7.22281e-12 0)             (3.28323e-11 7.60724e-12 0)             (3.32473e-11 7.97668e-12 0)             (3.36361e-11 8.32498e-12 0)             (3.39986e-11 8.66164e-12 0)             (3.39986e-11 8.66164e-12 0)             (3.43361e-11 8.97887e-12 0)             (3.46495e-11 9.26576e-12 0)             (3.49409e-11 9.50414e-12 0)             (3.52148e-11 9.64746e-12 0)             (3.54827e-11 9.69897e-12 0)             (3.54827e-11 9.69897e-12 0)             (3.57452e-11 9.70863e-12 0)             (3.60034e-11 9.68709e-12 0)             (3.62582e-11 9.61855e-12 0)             (3.651e-11 9.5191e-12 0)             (3.67587e-11 9.43149e-12 0)             (3.69993e-11 9.3482e-12 0)             (3.72298e-11 9.27153e-12 0)             (3.74508e-11 9.20523e-12 0)             (3.76621e-11 9.13682e-12 0)             (3.78661e-11 9.0756e-12 0)             (3.80647e-11 9.00428e-12 0)             (3.8259e-11 8.91086e-12 0)             (3.845e-11 8.79825e-12 0)             (3.86381e-11 8.65139e-12 0)             (3.88216e-11 8.48504e-12 0)             (3.9175e-11 8.1143e-12 0)             (3.93434e-11 7.91314e-12 0)             (3.95062e-11 7.70777e-12 0)             (3.9662e-11 7.49725e-12 0)             (3.98116e-11 7.28004e-12 0)             (4.00907e-11 6.79417e-12 0)             (4.02202e-11 6.56114e-12 0)             (4.03431e-11 6.3197e-12 0)             (4.04602e-11 6.05797e-12 0)             (4.06711e-11 5.53779e-12 0)             (4.07673e-11 5.27057e-12 0)             (4.09396e-11 4.74544e-12 0)             (4.10179e-11 4.47355e-12 0)             (4.10889e-11 4.19995e-12 0)             (4.12151e-11 3.64398e-12 0)             (4.13199e-11 3.10765e-12 0)             (4.13648e-11 2.84202e-12 0)             (4.14392e-11 2.31586e-12 0)             (4.14698e-11 2.05528e-12 0)             (4.15165e-11 1.56089e-12 0)             (4.15464e-11 1.07919e-12 0)             (4.15599e-11 6.2063e-13 0)             (4.1557e-11 1.3331e-13 0)
          0.3             (-3.09749e-10 -1.23162e-12 0)             (-3.10708e-10 -2.11965e-12 0)             (-3.10708e-10 -2.11965e-12 0)             (-3.11595e-10 -1.88026e-12 0)             (-3.11595e-10 -1.88026e-12 0)             (-3.12397e-10 -2.05156e-12 0)             (-3.13089e-10 -2.21862e-12 0)             (-3.13089e-10 -2.21862e-12 0)             (-3.13678e-10 -2.42869e-12 0)             (-3.14177e-10 -2.66136e-12 0)             (-3.14177e-10 -2.66136e-12 0)             (-3.14599e-10 -2.91754e-12 0)             (-3.14599e-10 -2.91754e-12 0)             (-3.14956e-10 -3.18687e-12 0)             (-3.15257e-10 -3.43966e-12 0)             (-3.15257e-10 -3.43966e-12 0)             (-3.15508e-10 -3.68567e-12 0)             (-3.15717e-10 -3.92324e-12 0)             (-3.15886e-10 -4.12716e-12 0)             (-3.15886e-10 -4.12716e-12 0)             (-3.16018e-10 -4.32069e-12 0)             (-3.16122e-10 -4.51474e-12 0)             (-3.16122e-10 -4.51474e-12 0)             (-3.16199e-10 -4.69617e-12 0)             (-3.16255e-10 -4.842e-12 0)             (-3.16298e-10 -4.95491e-12 0)             (-3.16298e-10 -4.95491e-12 0)             (-3.16331e-10 -5.04893e-12 0)             (-3.16356e-10 -5.1291e-12 0)             (-3.16371e-10 -5.20637e-12 0)             (-3.16373e-10 -5.27366e-12 0)             (-3.16373e-10 -5.27366e-12 0)             (-3.16359e-10 -5.33467e-12 0)             (-3.16329e-10 -5.39444e-12 0)             (-3.16284e-10 -5.44085e-12 0)             (-3.16224e-10 -5.46546e-12 0)             (-3.16152e-10 -5.46912e-12 0)             (-3.16152e-10 -5.46912e-12 0)             (-3.1607e-10 -5.44913e-12 0)             (-3.15981e-10 -5.41158e-12 0)             (-3.15888e-10 -5.37693e-12 0)             (-3.15789e-10 -5.33906e-12 0)             (-3.15687e-10 -5.29487e-12 0)             (-3.15581e-10 -5.2424e-12 0)             (-3.1547e-10 -5.18524e-12 0)             (-3.15354e-10 -5.12798e-12 0)             (-3.15236e-10 -5.04976e-12 0)             (-3.15116e-10 -4.97072e-12 0)             (-3.14994e-10 -4.88223e-12 0)             (-3.14871e-10 -4.77579e-12 0)             (-3.14749e-10 -4.67472e-12 0)             (-3.14625e-10 -4.55259e-12 0)             (-3.14503e-10 -4.42171e-12 0)             (-3.14264e-10 -4.16466e-12 0)             (-3.14146e-10 -4.03264e-12 0)             (-3.14029e-10 -3.88926e-12 0)             (-3.13913e-10 -3.74419e-12 0)             (-3.138e-10 -3.59878e-12 0)             (-3.13578e-10 -3.29756e-12 0)             (-3.1347e-10 -3.12431e-12 0)             (-3.13364e-10 -2.96428e-12 0)             (-3.1326e-10 -2.79052e-12 0)             (-3.13065e-10 -2.41719e-12 0)             (-3.12971e-10 -2.2327e-12 0)             (-3.12793e-10 -1.82793e-12 0)             (-3.12708e-10 -1.63099e-12 0)             (-3.12625e-10 -1.41958e-12 0)             (-3.12468e-10 -9.95966e-13 0)             (-3.12322e-10 -5.81105e-13 0)             (-3.12253e-10 -3.60577e-13 0)             (-3.12123e-10 6.69688e-14 0)             (-3.12062e-10 2.80317e-13 0)             (-3.11946e-10 7.04714e-13 0)             (-3.11839e-10 1.12597e-12 0)             (-3.11738e-10 1.54816e-12 0)             (-3.11645e-10 1.95591e-12 0)
          0.4             (1.56054e-11 -6.5742e-13 0)             (1.58559e-11 -9.89045e-13 0)             (1.58559e-11 -9.89045e-13 0)             (1.55764e-11 -7.27424e-13 0)             (1.55764e-11 -7.27424e-13 0)             (1.51012e-11 -7.08503e-13 0)             (1.44506e-11 -5.13296e-13 0)             (1.44506e-11 -5.13296e-13 0)             (1.36613e-11 -1.95888e-13 0)             (1.27729e-11 2.99802e-13 0)             (1.27729e-11 2.99802e-13 0)             (1.18186e-11 9.49595e-13 0)             (1.18186e-11 9.49595e-13 0)             (1.08249e-11 1.7331e-12 0)             (9.8173e-12 2.6427e-12 0)             (9.8173e-12 2.6427e-12 0)             (8.81279e-12 3.64177e-12 0)             (7.82694e-12 4.69196e-12 0)             (6.8681e-12 5.76733e-12 0)             (6.8681e-12 5.76733e-12 0)             (5.94261e-12 6.85079e-12 0)             (5.05786e-12 7.93888e-12 0)             (5.05786e-12 7.93888e-12 0)             (4.2162e-12 9.01684e-12 0)             (3.42094e-12 1.00747e-11 0)             (2.67058e-12 1.10979e-11 0)             (2.67058e-12 1.10979e-11 0)             (1.96612e-12 1.20721e-11 0)             (1.30339e-12 1.29899e-11 0)             (6.7931e-13 1.38443e-11 0)             (9.45155e-14 1.46312e-11 0)             (9.45155e-14 1.46312e-11 0)             (-4.55647e-13 1.53452e-11 0)             (-9.74407e-13 1.59744e-11 0)             (-1.46455e-12 1.65188e-11 0)             (-1.92909e-12 1.69642e-11 0)             (-2.37009e-12 1.72953e-11 0)             (-2.37009e-12 1.72953e-11 0)             (-2.78865e-12 1.75116e-11 0)             (-3.1857e-12 1.76251e-11 0)             (-3.56387e-12 1.76613e-11 0)             (-3.92402e-12 1.76234e-11 0)             (-4.26991e-12 1.75221e-11 0)             (-4.60184e-12 1.73848e-11 0)             (-4.92357e-12 1.72246e-11 0)             (-5.23711e-12 1.7035e-11 0)             (-5.54579e-12 1.68109e-11 0)             (-5.8489e-12 1.65583e-11 0)             (-6.1463e-12 1.62828e-11 0)             (-6.43663e-12 1.5985e-11 0)             (-6.71854e-12 1.56702e-11 0)             (-6.99019e-12 1.5336e-11 0)             (-7.2534e-12 1.49853e-11 0)             (-7.75667e-12 1.42317e-11 0)             (-7.99589e-12 1.38288e-11 0)             (-8.22758e-12 1.34098e-11 0)             (-8.452e-12 1.29957e-11 0)             (-8.66869e-12 1.25575e-11 0)             (-9.08403e-12 1.16597e-11 0)             (-9.28261e-12 1.11995e-11 0)             (-9.47619e-12 1.07183e-11 0)             (-9.6639e-12 1.02426e-11 0)             (-1.00294e-11 9.27694e-12 0)             (-1.02069e-11 8.78937e-12 0)             (-1.05411e-11 7.79194e-12 0)             (-1.06991e-11 7.29658e-12 0)             (-1.08489e-11 6.80348e-12 0)             (-1.11298e-11 5.80239e-12 0)             (-1.13811e-11 4.83279e-12 0)             (-1.14965e-11 4.35126e-12 0)             (-1.17041e-11 3.388e-12 0)             (-1.17976e-11 2.92363e-12 0)             (-1.19611e-11 1.99318e-12 0)             (-1.20959e-11 1.11946e-12 0)             (-1.22009e-11 2.80362e-13 0)             (-1.22804e-11 -6.67232e-13 0)
          0.5             (7.81925e-12 1.05477e-13 0)             (8.09631e-12 1.20316e-12 0)             (8.09631e-12 1.20316e-12 0)             (8.30329e-12 2.55849e-12 0)             (8.30329e-12 2.55849e-12 0)             (8.6374e-12 3.42816e-12 0)             (8.98928e-12 4.34776e-12 0)             (8.98928e-12 4.34776e-12 0)             (9.33289e-12 5.12556e-12 0)             (9.65038e-12 5.79656e-12 0)             (9.65038e-12 5.79656e-12 0)             (9.92755e-12 6.34839e-12 0)             (9.92755e-12 6.34839e-12 0)             (1.0156e-11 6.79704e-12 0)             (1.0327e-11 7.16293e-12 0)             (1.0327e-11 7.16293e-12 0)             (1.04376e-11 7.47554e-12 0)             (1.04922e-11 7.75035e-12 0)             (1.04891e-11 7.97433e-12 0)             (1.04891e-11 7.97433e-12 0)             (1.04335e-11 8.16591e-12 0)             (1.0323e-11 8.31275e-12 0)             (1.0323e-11 8.31275e-12 0)             (1.01551e-11 8.41803e-12 0)             (9.93297e-12 8.49149e-12 0)             (9.66635e-12 8.53391e-12 0)             (9.66635e-12 8.53391e-12 0)             (9.36253e-12 8.54361e-12 0)             (9.02857e-12 8.52011e-12 0)             (8.67379e-12 8.46971e-12 0)             (8.30305e-12 8.38552e-12 0)             (8.30305e-12 8.38552e-12 0)             (7.91768e-12 8.26193e-12 0)             (7.52144e-12 8.10492e-12 0)             (7.11567e-12 7.92809e-12 0)             (6.70469e-12 7.74039e-12 0)             (6.29307e-12 7.56638e-12 0)             (6.29307e-12 7.56638e-12 0)             (5.88457e-12 7.44026e-12 0)             (5.48711e-12 7.35515e-12 0)             (5.10227e-12 7.27935e-12 0)             (4.73175e-12 7.20988e-12 0)             (4.3767e-12 7.13426e-12 0)             (4.03699e-12 7.0447e-12 0)             (3.71352e-12 6.94647e-12 0)             (3.40705e-12 6.85302e-12 0)             (3.11529e-12 6.75708e-12 0)             (2.83925e-12 6.65205e-12 0)             (2.57866e-12 6.54274e-12 0)             (2.33409e-12 6.42893e-12 0)             (2.10405e-12 6.31491e-12 0)             (1.88897e-12 6.19089e-12 0)             (1.68725e-12 6.06618e-12 0)             (1.32388e-12 5.80751e-12 0)             (1.16258e-12 5.67536e-12 0)             (1.0134e-12 5.54102e-12 0)             (8.76499e-13 5.3943e-12 0)             (7.51263e-13 5.25948e-12 0)             (5.37447e-13 4.95674e-12 0)             (4.46948e-13 4.81209e-12 0)             (3.68155e-13 4.66296e-12 0)             (2.99456e-13 4.51318e-12 0)             (1.80548e-13 4.19924e-12 0)             (1.29516e-13 4.04469e-12 0)             (5.59537e-14 3.72909e-12 0)             (3.22183e-14 3.56959e-12 0)             (1.64046e-14 3.40595e-12 0)             (6.84456e-15 3.07646e-12 0)             (2.39427e-14 2.75077e-12 0)             (4.13463e-14 2.58441e-12 0)             (9.27123e-14 2.24622e-12 0)             (1.2455e-13 2.05555e-12 0)             (2.03604e-13 1.71291e-12 0)             (2.9613e-13 1.36275e-12 0)             (4.03302e-13 9.94636e-13 0)             (5.22418e-13 6.56526e-13 0)
          0.6             (1.1068e-11 -1.52835e-13 0)             (1.13831e-11 8.08626e-13 0)             (1.13831e-11 8.08626e-13 0)             (1.18201e-11 2.45142e-12 0)             (1.18201e-11 2.45142e-12 0)             (1.24177e-11 3.65711e-12 0)             (1.30775e-11 4.87793e-12 0)             (1.30775e-11 4.87793e-12 0)             (1.37829e-11 5.88511e-12 0)             (1.45065e-11 6.71569e-12 0)             (1.45065e-11 6.71569e-12 0)             (1.52235e-11 7.3583e-12 0)             (1.52235e-11 7.3583e-12 0)             (1.59095e-11 7.83271e-12 0)             (1.6549e-11 8.1643e-12 0)             (1.6549e-11 8.1643e-12 0)             (1.7125e-11 8.37234e-12 0)             (1.76262e-11 8.47578e-12 0)             (1.80423e-11 8.50135e-12 0)             (1.80423e-11 8.50135e-12 0)             (1.83717e-11 8.46341e-12 0)             (1.86125e-11 8.37093e-12 0)             (1.86125e-11 8.37093e-12 0)             (1.87662e-11 8.25082e-12 0)             (1.88336e-11 8.11408e-12 0)             (1.88193e-11 7.96399e-12 0)             (1.88193e-11 7.96399e-12 0)             (1.87286e-11 7.80896e-12 0)             (1.85702e-11 7.64495e-12 0)             (1.83512e-11 7.46819e-12 0)             (1.80796e-11 7.28887e-12 0)             (1.80796e-11 7.28887e-12 0)             (1.77613e-11 7.10958e-12 0)             (1.74043e-11 6.93116e-12 0)             (1.70162e-11 6.76982e-12 0)             (1.66037e-11 6.63708e-12 0)             (1.61761e-11 6.54576e-12 0)             (1.61761e-11 6.54576e-12 0)             (1.57398e-11 6.48138e-12 0)             (1.53009e-11 6.42262e-12 0)             (1.48632e-11 6.37194e-12 0)             (1.44309e-11 6.32494e-12 0)             (1.40067e-11 6.27359e-12 0)             (1.35928e-11 6.22605e-12 0)             (1.31918e-11 6.18095e-12 0)             (1.28059e-11 6.12647e-12 0)             (1.24351e-11 6.07428e-12 0)             (1.2081e-11 6.02144e-12 0)             (1.17448e-11 5.96429e-12 0)             (1.14267e-11 5.90559e-12 0)             (1.11277e-11 5.84093e-12 0)             (1.08474e-11 5.777e-12 0)             (1.05853e-11 5.7103e-12 0)             (1.01149e-11 5.56236e-12 0)             (9.90648e-12 5.47741e-12 0)             (9.7158e-12 5.39026e-12 0)             (9.54174e-12 5.29736e-12 0)             (9.38304e-12 5.19828e-12 0)             (9.11288e-12 4.98646e-12 0)             (8.99791e-12 4.86823e-12 0)             (8.89823e-12 4.748e-12 0)             (8.81047e-12 4.62313e-12 0)             (8.65559e-12 4.3568e-12 0)             (8.58716e-12 4.2118e-12 0)             (8.48512e-12 3.91992e-12 0)             (8.44924e-12 3.74987e-12 0)             (8.42353e-12 3.59259e-12 0)             (8.39963e-12 3.2668e-12 0)             (8.4079e-12 2.91594e-12 0)             (8.42243e-12 2.73939e-12 0)             (8.47207e-12 2.37597e-12 0)             (8.50445e-12 2.19827e-12 0)             (8.58573e-12 1.83319e-12 0)             (8.68482e-12 1.45356e-12 0)             (8.79915e-12 1.08795e-12 0)             (8.92488e-12 7.93941e-13 0)
          0.7             (5.60148e-12 2.34237e-13 0)             (5.98328e-12 1.63547e-12 0)             (5.98328e-12 1.63547e-12 0)             (6.30453e-12 3.31722e-12 0)             (6.30453e-12 3.31722e-12 0)             (6.74058e-12 4.44911e-12 0)             (7.19696e-12 5.53837e-12 0)             (7.19696e-12 5.53837e-12 0)             (7.67042e-12 6.38015e-12 0)             (8.1414e-12 7.01819e-12 0)             (8.1414e-12 7.01819e-12 0)             (8.59539e-12 7.45392e-12 0)             (8.59539e-12 7.45392e-12 0)             (9.01784e-12 7.71456e-12 0)             (9.3977e-12 7.83503e-12 0)             (9.3977e-12 7.83503e-12 0)             (9.72408e-12 7.83527e-12 0)             (9.98889e-12 7.74708e-12 0)             (1.01855e-11 7.60182e-12 0)             (1.01855e-11 7.60182e-12 0)             (1.0315e-11 7.40967e-12 0)             (1.0376e-11 7.18269e-12 0)             (1.0376e-11 7.18269e-12 0)             (1.03724e-11 6.94286e-12 0)             (1.03106e-11 6.70003e-12 0)             (1.01925e-11 6.46413e-12 0)             (1.01925e-11 6.46413e-12 0)             (1.00271e-11 6.23443e-12 0)             (9.81857e-12 6.01242e-12 0)             (9.57484e-12 5.80932e-12 0)             (9.30165e-12 5.61617e-12 0)             (9.30165e-12 5.61617e-12 0)             (9.00483e-12 5.43586e-12 0)             (8.69005e-12 5.27567e-12 0)             (8.36149e-12 5.14011e-12 0)             (8.02558e-12 5.03685e-12 0)             (7.68705e-12 4.96783e-12 0)             (7.68705e-12 4.96783e-12 0)             (7.35023e-12 4.92655e-12 0)             (7.01835e-12 4.89121e-12 0)             (6.69228e-12 4.86474e-12 0)             (6.37476e-12 4.84284e-12 0)             (6.0646e-12 4.8177e-12 0)             (5.76513e-12 4.79438e-12 0)             (5.47642e-12 4.77462e-12 0)             (5.19853e-12 4.77193e-12 0)             (4.9324e-12 4.77261e-12 0)             (4.67838e-12 4.77883e-12 0)             (4.43809e-12 4.78563e-12 0)             (4.21128e-12 4.79891e-12 0)             (3.9991e-12 4.80885e-12 0)             (3.80173e-12 4.812e-12 0)             (3.61801e-12 4.81506e-12 0)             (3.29342e-12 4.78479e-12 0)             (3.15262e-12 4.7555e-12 0)             (3.02616e-12 4.72341e-12 0)             (2.91246e-12 4.67921e-12 0)             (2.81181e-12 4.6304e-12 0)             (2.6468e-12 4.5192e-12 0)             (2.5798e-12 4.44336e-12 0)             (2.52414e-12 4.37669e-12 0)             (2.47874e-12 4.29731e-12 0)             (2.39287e-12 4.09789e-12 0)             (2.35106e-12 3.98316e-12 0)             (2.29627e-12 3.73234e-12 0)             (2.28129e-12 3.599e-12 0)             (2.27346e-12 3.46349e-12 0)             (2.27938e-12 3.16789e-12 0)             (2.31025e-12 2.84546e-12 0)             (2.33489e-12 2.69351e-12 0)             (2.39672e-12 2.36698e-12 0)             (2.43375e-12 2.20265e-12 0)             (2.52072e-12 1.87239e-12 0)             (2.61843e-12 1.53599e-12 0)             (2.72717e-12 1.20641e-12 0)             (2.84042e-12 9.78867e-13 0)
          0.8             (1.00952e-11 4.45188e-13 0)             (1.04189e-11 2.25016e-12 0)             (1.04189e-11 2.25016e-12 0)             (1.07373e-11 4.31159e-12 0)             (1.07373e-11 4.31159e-12 0)             (1.12299e-11 5.80262e-12 0)             (1.17885e-11 7.19496e-12 0)             (1.17885e-11 7.19496e-12 0)             (1.24e-11 8.27618e-12 0)             (1.30247e-11 9.10546e-12 0)             (1.30247e-11 9.10546e-12 0)             (1.36326e-11 9.68375e-12 0)             (1.36326e-11 9.68375e-12 0)             (1.41941e-11 1.00404e-11 0)             (1.46867e-11 1.02019e-11 0)             (1.46867e-11 1.02019e-11 0)             (1.50904e-11 1.02016e-11 0)             (1.53919e-11 1.0082e-11 0)             (1.55839e-11 9.86303e-12 0)             (1.55839e-11 9.86303e-12 0)             (1.56643e-11 9.57582e-12 0)             (1.56349e-11 9.24992e-12 0)             (1.56349e-11 9.24992e-12 0)             (1.54986e-11 8.90441e-12 0)             (1.52622e-11 8.55924e-12 0)             (1.49342e-11 8.22303e-12 0)             (1.49342e-11 8.22303e-12 0)             (1.45229e-11 7.90065e-12 0)             (1.4038e-11 7.59524e-12 0)             (1.34906e-11 7.3137e-12 0)             (1.28907e-11 7.05053e-12 0)             (1.28907e-11 7.05053e-12 0)             (1.22477e-11 6.80145e-12 0)             (1.15709e-11 6.56912e-12 0)             (1.08686e-11 6.36053e-12 0)             (1.01505e-11 6.18467e-12 0)             (9.4222e-12 6.02951e-12 0)             (9.4222e-12 6.02951e-12 0)             (8.69243e-12 5.89155e-12 0)             (7.96594e-12 5.7752e-12 0)             (7.24826e-12 5.68544e-12 0)             (6.54376e-12 5.61409e-12 0)             (5.85743e-12 5.55757e-12 0)             (5.19091e-12 5.52091e-12 0)             (4.54912e-12 5.48974e-12 0)             (3.93102e-12 5.47006e-12 0)             (3.34173e-12 5.47909e-12 0)             (2.7799e-12 5.51703e-12 0)             (2.24999e-12 5.562e-12 0)             (1.75144e-12 5.59341e-12 0)             (1.28557e-12 5.62861e-12 0)             (8.50396e-13 5.65758e-12 0)             (4.45303e-13 5.67329e-12 0)             (-2.77402e-13 5.67649e-12 0)             (-5.95917e-13 5.65349e-12 0)             (-8.88377e-13 5.60174e-12 0)             (-1.15574e-12 5.55689e-12 0)             (-1.39924e-12 5.49859e-12 0)             (-1.81687e-12 5.34647e-12 0)             (-1.99512e-12 5.25243e-12 0)             (-2.15286e-12 5.15879e-12 0)             (-2.29122e-12 5.05456e-12 0)             (-2.54405e-12 4.81828e-12 0)             (-2.66033e-12 4.68359e-12 0)             (-2.84178e-12 4.40232e-12 0)             (-2.90886e-12 4.24239e-12 0)             (-2.9616e-12 4.08321e-12 0)             (-3.0278e-12 3.77088e-12 0)             (-3.04523e-12 3.42891e-12 0)             (-3.03746e-12 3.2566e-12 0)             (-2.99272e-12 2.9074e-12 0)             (-2.95757e-12 2.73486e-12 0)             (-2.86342e-12 2.38901e-12 0)             (-2.74184e-12 2.04683e-12 0)             (-2.59546e-12 1.72846e-12 0)             (-2.43447e-12 1.5352e-12 0)