# Probe 0 (15.31 -0.61 0)
# Probe 1 (15.31 -0.6 0)
# Probe 2 (15.31 -0.59 0)
# Probe 3 (15.31 -0.58 0)
# Probe 4 (15.31 -0.57 0)
# Probe 5 (15.31 -0.56 0)
# Probe 6 (15.31 -0.55 0)
# Probe 7 (15.31 -0.54 0)
# Probe 8 (15.31 -0.53 0)
# Probe 9 (15.31 -0.52 0)
# Probe 10 (15.31 -0.51 0)
# Probe 11 (15.31 -0.5 0)
# Probe 12 (15.31 -0.49 0)
# Probe 13 (15.31 -0.48 0)
# Probe 14 (15.31 -0.47 0)
# Probe 15 (15.31 -0.46 0)
# Probe 16 (15.31 -0.45 0)
# Probe 17 (15.31 -0.44 0)
# Probe 18 (15.31 -0.43 0)
# Probe 19 (15.31 -0.42 0)
# Probe 20 (15.31 -0.41 0)
# Probe 21 (15.31 -0.4 0)
# Probe 22 (15.31 -0.39 0)
# Probe 23 (15.31 -0.38 0)
# Probe 24 (15.31 -0.37 0)
# Probe 25 (15.31 -0.36 0)
# Probe 26 (15.31 -0.35 0)
# Probe 27 (15.31 -0.34 0)
# Probe 28 (15.31 -0.33 0)
# Probe 29 (15.31 -0.32 0)
# Probe 30 (15.31 -0.31 0)
# Probe 31 (15.31 -0.3 0)
# Probe 32 (15.31 -0.29 0)
# Probe 33 (15.31 -0.28 0)
# Probe 34 (15.31 -0.27 0)
# Probe 35 (15.31 -0.26 0)
# Probe 36 (15.31 -0.25 0)
# Probe 37 (15.31 -0.24 0)
# Probe 38 (15.31 -0.23 0)
# Probe 39 (15.31 -0.22 0)
# Probe 40 (15.31 -0.21 0)
# Probe 41 (15.31 -0.2 0)
# Probe 42 (15.31 -0.19 0)
# Probe 43 (15.31 -0.18 0)
# Probe 44 (15.31 -0.17 0)
# Probe 45 (15.31 -0.16 0)
# Probe 46 (15.31 -0.15 0)
# Probe 47 (15.31 -0.14 0)
# Probe 48 (15.31 -0.13 0)
# Probe 49 (15.31 -0.12 0)
# Probe 50 (15.31 -0.11 0)
# Probe 51 (15.31 -0.1 0)
# Probe 52 (15.31 -0.09 0)
# Probe 53 (15.31 -0.08 0)
# Probe 54 (15.31 -0.07 0)
# Probe 55 (15.31 -0.06 0)
# Probe 56 (15.31 -0.05 0)
# Probe 57 (15.31 -0.04 0)
# Probe 58 (15.31 -0.03 0)
# Probe 59 (15.31 -0.02 0)
# Probe 60 (15.31 -0.01 0)
# Probe 61 (15.31 0 0)
# Probe 62 (15.31 0.01 0)
# Probe 63 (15.31 0.02 0)
# Probe 64 (15.31 0.03 0)
# Probe 65 (15.31 0.04 0)
# Probe 66 (15.31 0.05 0)
# Probe 67 (15.31 0.06 0)
# Probe 68 (15.31 0.07 0)
# Probe 69 (15.31 0.08 0)
# Probe 70 (15.31 0.09 0)
# Probe 71 (15.31 0.1 0)
# Probe 72 (15.31 0.11 0)
# Probe 73 (15.31 0.12 0)
# Probe 74 (15.31 0.13 0)
# Probe 75 (15.31 0.14 0)
#       Probe             0             1             2             3             4             5             6             7             8             9            10            11            12            13            14            15            16            17            18            19            20            21            22            23            24            25            26            27            28            29            30            31            32            33            34            35            36            37            38            39            40            41            42            43            44            45            46            47            48            49            50            51            52            53            54            55            56            57            58            59            60            61            62            63            64            65            66            67            68            69            70            71            72            73            74            75
#        Time
          0.1             (1.31855e-11 1.04682e-12 0)             (1.31855e-11 1.04682e-12 0)             (1.12578e-11 1.63209e-12 0)             (1.12578e-11 1.63209e-12 0)             (1.12578e-11 1.63209e-12 0)             (9.74597e-12 -5.3413e-13 0)             (9.74597e-12 -5.3413e-13 0)             (8.47598e-12 -3.11845e-12 0)             (8.47598e-12 -3.11845e-12 0)             (7.68538e-12 -4.75781e-12 0)             (7.68538e-12 -4.75781e-12 0)             (7.31212e-12 -6.12205e-12 0)             (7.31212e-12 -6.12205e-12 0)             (7.31212e-12 -6.12205e-12 0)             (7.24312e-12 -7.20498e-12 0)             (7.24312e-12 -7.20498e-12 0)             (7.35787e-12 -8.06316e-12 0)             (7.35787e-12 -8.06316e-12 0)             (7.5792e-12 -8.73558e-12 0)             (7.5792e-12 -8.73558e-12 0)             (7.8451e-12 -9.24999e-12 0)             (7.8451e-12 -9.24999e-12 0)             (8.1201e-12 -9.64049e-12 0)             (8.1201e-12 -9.64049e-12 0)             (8.37862e-12 -9.94172e-12 0)             (8.60407e-12 -1.01864e-11 0)             (8.60407e-12 -1.01864e-11 0)             (8.79253e-12 -1.03918e-11 0)             (8.79253e-12 -1.03918e-11 0)             (8.94444e-12 -1.05715e-11 0)             (8.94444e-12 -1.05715e-11 0)             (9.06002e-12 -1.07281e-11 0)             (9.14112e-12 -1.0863e-11 0)             (9.14112e-12 -1.0863e-11 0)             (9.19365e-12 -1.09725e-11 0)             (9.22328e-12 -1.10577e-11 0)             (9.22328e-12 -1.10577e-11 0)             (9.23841e-12 -1.11383e-11 0)             (9.24659e-12 -1.12116e-11 0)             (9.24659e-12 -1.12116e-11 0)             (9.25335e-12 -1.12573e-11 0)             (9.26197e-12 -1.12551e-11 0)             (9.27106e-12 -1.11796e-11 0)             (9.27106e-12 -1.11796e-11 0)             (9.27558e-12 -1.10166e-11 0)             (9.27211e-12 -1.0806e-11 0)             (9.25983e-12 -1.05782e-11 0)             (9.24115e-12 -1.03162e-11 0)             (9.21553e-12 -1.00242e-11 0)             (9.18598e-12 -9.71946e-12 0)             (9.1572e-12 -9.38887e-12 0)             (9.12952e-12 -9.05912e-12 0)             (9.10415e-12 -8.74765e-12 0)             (9.08076e-12 -8.44386e-12 0)             (9.05846e-12 -8.16819e-12 0)             (9.03692e-12 -7.91256e-12 0)             (9.01524e-12 -7.64904e-12 0)             (8.99467e-12 -7.3909e-12 0)             (8.97451e-12 -7.14842e-12 0)             (8.93351e-12 -6.64754e-12 0)             (8.91424e-12 -6.38488e-12 0)             (8.89437e-12 -6.13605e-12 0)             (8.85617e-12 -5.62372e-12 0)             (8.83746e-12 -5.37462e-12 0)             (8.80128e-12 -4.88513e-12 0)             (8.76649e-12 -4.39154e-12 0)             (8.75089e-12 -4.15435e-12 0)             (8.7205e-12 -3.66473e-12 0)             (8.69229e-12 -3.23506e-12 0)             (8.66682e-12 -2.82913e-12 0)             (8.64365e-12 -2.42672e-12 0)             (8.61304e-12 -1.85515e-12 0)             (8.59547e-12 -1.51485e-12 0)             (8.57215e-12 -1.00138e-12 0)             (8.55164e-12 -5.74416e-13 0)             (8.52744e-12 -4.73224e-14 0)
          0.2             (-1.11734e-11 1.95389e-13 0)             (-1.11734e-11 1.95389e-13 0)             (-9.08102e-12 1.95524e-12 0)             (-9.08102e-12 1.95524e-12 0)             (-9.08102e-12 1.95524e-12 0)             (-6.81705e-12 3.94478e-12 0)             (-6.81705e-12 3.94478e-12 0)             (-5.24808e-12 5.16661e-12 0)             (-5.24808e-12 5.16661e-12 0)             (-4.23961e-12 6.58784e-12 0)             (-4.23961e-12 6.58784e-12 0)             (-3.76048e-12 7.85991e-12 0)             (-3.76048e-12 7.85991e-12 0)             (-3.76048e-12 7.85991e-12 0)             (-3.68737e-12 9.1628e-12 0)             (-3.68737e-12 9.1628e-12 0)             (-3.90205e-12 1.04421e-11 0)             (-3.90205e-12 1.04421e-11 0)             (-4.29952e-12 1.16426e-11 0)             (-4.29952e-12 1.16426e-11 0)             (-4.80003e-12 1.2736e-11 0)             (-4.80003e-12 1.2736e-11 0)             (-5.34604e-12 1.36681e-11 0)             (-5.34604e-12 1.36681e-11 0)             (-5.89397e-12 1.43488e-11 0)             (-6.40983e-12 1.48411e-11 0)             (-6.40983e-12 1.48411e-11 0)             (-6.88549e-12 1.52525e-11 0)             (-6.88549e-12 1.52525e-11 0)             (-7.32065e-12 1.55762e-11 0)             (-7.32065e-12 1.55762e-11 0)             (-7.71523e-12 1.58273e-11 0)             (-8.07199e-12 1.60321e-11 0)             (-8.07199e-12 1.60321e-11 0)             (-8.39387e-12 1.61894e-11 0)             (-8.6861e-12 1.62994e-11 0)             (-8.6861e-12 1.62994e-11 0)             (-8.9511e-12 1.63683e-11 0)             (-9.18938e-12 1.6395e-11 0)             (-9.18938e-12 1.6395e-11 0)             (-9.40538e-12 1.63949e-11 0)             (-9.59881e-12 1.63846e-11 0)             (-9.77338e-12 1.63856e-11 0)             (-9.77338e-12 1.63856e-11 0)             (-9.92946e-12 1.63937e-11 0)             (-1.00712e-11 1.63709e-11 0)             (-1.01998e-11 1.6303e-11 0)             (-1.03181e-11 1.62023e-11 0)             (-1.04259e-11 1.60719e-11 0)             (-1.0524e-11 1.59016e-11 0)             (-1.0614e-11 1.56935e-11 0)             (-1.0696e-11 1.54567e-11 0)             (-1.07693e-11 1.51949e-11 0)             (-1.08345e-11 1.49075e-11 0)             (-1.08933e-11 1.45997e-11 0)             (-1.09448e-11 1.42732e-11 0)             (-1.09911e-11 1.39313e-11 0)             (-1.103e-11 1.35733e-11 0)             (-1.10637e-11 1.32129e-11 0)             (-1.11161e-11 1.24531e-11 0)             (-1.11357e-11 1.20618e-11 0)             (-1.11507e-11 1.16682e-11 0)             (-1.11673e-11 1.0884e-11 0)             (-1.11715e-11 1.04935e-11 0)             (-1.11694e-11 9.69523e-12 0)             (-1.11593e-11 8.89433e-12 0)             (-1.11518e-11 8.4877e-12 0)             (-1.11346e-11 7.69632e-12 0)             (-1.11146e-11 6.88358e-12 0)             (-1.10913e-11 6.10128e-12 0)             (-1.10681e-11 5.32758e-12 0)             (-1.10323e-11 4.23252e-12 0)             (-1.10087e-11 3.55135e-12 0)             (-1.0973e-11 2.56581e-12 0)             (-1.09383e-11 1.62464e-12 0)             (-1.08952e-11 4.64101e-13 0)
          0.3             (4.8027e-12 2.77065e-12 0)             (4.8027e-12 2.77065e-12 0)             (3.45308e-12 3.85565e-12 0)             (3.45308e-12 3.85565e-12 0)             (3.45308e-12 3.85565e-12 0)             (2.83854e-12 -9.99432e-14 0)             (2.83854e-12 -9.99432e-14 0)             (2.08866e-12 -3.94514e-12 0)             (2.08866e-12 -3.94514e-12 0)             (1.44985e-12 -6.87629e-12 0)             (1.44985e-12 -6.87629e-12 0)             (8.59398e-13 -9.29619e-12 0)             (8.59398e-13 -9.29619e-12 0)             (8.59398e-13 -9.29619e-12 0)             (3.13419e-13 -1.11326e-11 0)             (3.13419e-13 -1.11326e-11 0)             (-2.0203e-13 -1.24806e-11 0)             (-2.0203e-13 -1.24806e-11 0)             (-6.93335e-13 -1.3491e-11 0)             (-6.93335e-13 -1.3491e-11 0)             (-1.16386e-12 -1.426e-11 0)             (-1.16386e-12 -1.426e-11 0)             (-1.61241e-12 -1.48639e-11 0)             (-1.61241e-12 -1.48639e-11 0)             (-2.03601e-12 -1.53766e-11 0)             (-2.43176e-12 -1.5844e-11 0)             (-2.43176e-12 -1.5844e-11 0)             (-2.79055e-12 -1.63062e-11 0)             (-2.79055e-12 -1.63062e-11 0)             (-3.10505e-12 -1.67422e-11 0)             (-3.10505e-12 -1.67422e-11 0)             (-3.37237e-12 -1.71253e-11 0)             (-3.58824e-12 -1.74628e-11 0)             (-3.58824e-12 -1.74628e-11 0)             (-3.75923e-12 -1.77371e-11 0)             (-3.89162e-12 -1.79567e-11 0)             (-3.89162e-12 -1.79567e-11 0)             (-3.99394e-12 -1.81069e-11 0)             (-4.07255e-12 -1.81908e-11 0)             (-4.07255e-12 -1.81908e-11 0)             (-4.13444e-12 -1.822e-11 0)             (-4.1863e-12 -1.81876e-11 0)             (-4.23281e-12 -1.80918e-11 0)             (-4.23281e-12 -1.80918e-11 0)             (-4.27639e-12 -1.793e-11 0)             (-4.31534e-12 -1.77203e-11 0)             (-4.35102e-12 -1.74771e-11 0)             (-4.38349e-12 -1.71965e-11 0)             (-4.41413e-12 -1.68873e-11 0)             (-4.44374e-12 -1.65582e-11 0)             (-4.47406e-12 -1.61977e-11 0)             (-4.50346e-12 -1.58095e-11 0)             (-4.53354e-12 -1.54146e-11 0)             (-4.56286e-12 -1.5007e-11 0)             (-4.59238e-12 -1.45942e-11 0)             (-4.61963e-12 -1.41822e-11 0)             (-4.64748e-12 -1.37562e-11 0)             (-4.6712e-12 -1.33321e-11 0)             (-4.69485e-12 -1.28984e-11 0)             (-4.73586e-12 -1.20145e-11 0)             (-4.75334e-12 -1.15691e-11 0)             (-4.76895e-12 -1.11322e-11 0)             (-4.78866e-12 -1.02428e-11 0)             (-4.7967e-12 -9.8043e-12 0)             (-4.80644e-12 -8.92959e-12 0)             (-4.81107e-12 -8.08565e-12 0)             (-4.81193e-12 -7.67494e-12 0)             (-4.80972e-12 -6.83699e-12 0)             (-4.8051e-12 -6.06335e-12 0)             (-4.7969e-12 -5.33445e-12 0)             (-4.78836e-12 -4.64163e-12 0)             (-4.77458e-12 -3.64652e-12 0)             (-4.76421e-12 -3.00997e-12 0)             (-4.75314e-12 -2.18865e-12 0)             (-4.74556e-12 -1.42494e-12 0)             (-4.74548e-12 -5.27347e-13 0)
          0.4             (-9.53475e-13 3.88375e-12 0)             (-9.53475e-13 3.88375e-12 0)             (-1.82965e-12 4.77425e-12 0)             (-1.82965e-12 4.77425e-12 0)             (-1.82965e-12 4.77425e-12 0)             (-2.00511e-12 -5.1248e-13 0)             (-2.00511e-12 -5.1248e-13 0)             (-2.55553e-12 -4.76019e-12 0)             (-2.55553e-12 -4.76019e-12 0)             (-3.01654e-12 -8.50141e-12 0)             (-3.01654e-12 -8.50141e-12 0)             (-3.49125e-12 -1.17366e-11 0)             (-3.49125e-12 -1.17366e-11 0)             (-3.49125e-12 -1.17366e-11 0)             (-3.9613e-12 -1.42878e-11 0)             (-3.9613e-12 -1.42878e-11 0)             (-4.42003e-12 -1.62393e-11 0)             (-4.42003e-12 -1.62393e-11 0)             (-4.85506e-12 -1.77501e-11 0)             (-4.85506e-12 -1.77501e-11 0)             (-5.25348e-12 -1.89242e-11 0)             (-5.25348e-12 -1.89242e-11 0)             (-5.59875e-12 -1.9798e-11 0)             (-5.59875e-12 -1.9798e-11 0)             (-5.87201e-12 -2.04409e-11 0)             (-6.06582e-12 -2.09345e-11 0)             (-6.06582e-12 -2.09345e-11 0)             (-6.17938e-12 -2.13047e-11 0)             (-6.17938e-12 -2.13047e-11 0)             (-6.21809e-12 -2.15954e-11 0)             (-6.21809e-12 -2.15954e-11 0)             (-6.18869e-12 -2.18364e-11 0)             (-6.10113e-12 -2.20096e-11 0)             (-6.10113e-12 -2.20096e-11 0)             (-5.96562e-12 -2.21022e-11 0)             (-5.78419e-12 -2.21222e-11 0)             (-5.78419e-12 -2.21222e-11 0)             (-5.56664e-12 -2.20934e-11 0)             (-5.32165e-12 -2.20319e-11 0)             (-5.32165e-12 -2.20319e-11 0)             (-5.05134e-12 -2.1925e-11 0)             (-4.76327e-12 -2.17707e-11 0)             (-4.46235e-12 -2.15778e-11 0)             (-4.46235e-12 -2.15778e-11 0)             (-4.15381e-12 -2.13598e-11 0)             (-3.84263e-12 -2.1125e-11 0)             (-3.53107e-12 -2.0863e-11 0)             (-3.22374e-12 -2.05829e-11 0)             (-2.92183e-12 -2.02645e-11 0)             (-2.628e-12 -1.99031e-11 0)             (-2.34245e-12 -1.95276e-11 0)             (-2.0665e-12 -1.91281e-11 0)             (-1.80248e-12 -1.8711e-11 0)             (-1.54872e-12 -1.82852e-11 0)             (-1.3062e-12 -1.78499e-11 0)             (-1.07509e-12 -1.74055e-11 0)             (-8.57483e-13 -1.69488e-11 0)             (-6.48501e-13 -1.64804e-11 0)             (-4.50684e-13 -1.59937e-11 0)             (-8.23115e-14 -1.49809e-11 0)             (8.81679e-14 -1.44717e-11 0)             (2.51428e-13 -1.39557e-11 0)             (5.59509e-13 -1.29151e-11 0)             (7.00197e-13 -1.23931e-11 0)             (9.5816e-13 -1.13525e-11 0)             (1.18389e-12 -1.03306e-11 0)             (1.28439e-12 -9.82453e-12 0)             (1.46465e-12 -8.82151e-12 0)             (1.61745e-12 -7.86387e-12 0)             (1.74631e-12 -6.9619e-12 0)             (1.8512e-12 -6.0919e-12 0)             (1.97172e-12 -4.80564e-12 0)             (2.03048e-12 -4.02489e-12 0)             (2.09192e-12 -2.9015e-12 0)             (2.12567e-12 -1.87441e-12 0)             (2.13484e-12 -6.10282e-13 0)
          0.5             (1.40669e-11 5.78392e-12 0)             (1.40669e-11 5.78392e-12 0)             (1.30173e-11 6.76631e-12 0)             (1.30173e-11 6.76631e-12 0)             (1.30173e-11 6.76631e-12 0)             (1.24574e-11 -3.07476e-13 0)             (1.24574e-11 -3.07476e-13 0)             (1.14654e-11 -4.84366e-12 0)             (1.14654e-11 -4.84366e-12 0)             (1.06253e-11 -9.11126e-12 0)             (1.06253e-11 -9.11126e-12 0)             (9.79414e-12 -1.27188e-11 0)             (9.79414e-12 -1.27188e-11 0)             (9.79414e-12 -1.27188e-11 0)             (9.00294e-12 -1.55274e-11 0)             (9.00294e-12 -1.55274e-11 0)             (8.25259e-12 -1.76515e-11 0)             (8.25259e-12 -1.76515e-11 0)             (7.54926e-12 -1.92505e-11 0)             (7.54926e-12 -1.92505e-11 0)             (6.89863e-12 -2.04455e-11 0)             (6.89863e-12 -2.04455e-11 0)             (6.31128e-12 -2.1352e-11 0)             (6.31128e-12 -2.1352e-11 0)             (5.79443e-12 -2.20579e-11 0)             (5.35151e-12 -2.2583e-11 0)             (5.35151e-12 -2.2583e-11 0)             (4.99004e-12 -2.29494e-11 0)             (4.99004e-12 -2.29494e-11 0)             (4.7115e-12 -2.32225e-11 0)             (4.7115e-12 -2.32225e-11 0)             (4.50958e-12 -2.34349e-11 0)             (4.37882e-12 -2.35935e-11 0)             (4.37882e-12 -2.35935e-11 0)             (4.30619e-12 -2.37038e-11 0)             (4.28534e-12 -2.37889e-11 0)             (4.28534e-12 -2.37889e-11 0)             (4.30552e-12 -2.38169e-11 0)             (4.36719e-12 -2.37758e-11 0)             (4.36719e-12 -2.37758e-11 0)             (4.46267e-12 -2.3688e-11 0)             (4.58771e-12 -2.35484e-11 0)             (4.73309e-12 -2.33615e-11 0)             (4.73309e-12 -2.33615e-11 0)             (4.89545e-12 -2.3129e-11 0)             (5.0708e-12 -2.28497e-11 0)             (5.25418e-12 -2.25318e-11 0)             (5.43722e-12 -2.2182e-11 0)             (5.61893e-12 -2.1803e-11 0)             (5.80087e-12 -2.13957e-11 0)             (5.98348e-12 -2.09646e-11 0)             (6.16673e-12 -2.05179e-11 0)             (6.35049e-12 -2.00565e-11 0)             (6.53149e-12 -1.95752e-11 0)             (6.70976e-12 -1.90799e-11 0)             (6.88463e-12 -1.85656e-11 0)             (7.0531e-12 -1.80402e-11 0)             (7.21502e-12 -1.7509e-11 0)             (7.3695e-12 -1.69628e-11 0)             (7.65698e-12 -1.58634e-11 0)             (7.79099e-12 -1.52968e-11 0)             (7.91977e-12 -1.47348e-11 0)             (8.16828e-12 -1.36174e-11 0)             (8.28228e-12 -1.30556e-11 0)             (8.48954e-12 -1.19578e-11 0)             (8.67e-12 -1.08677e-11 0)             (8.75001e-12 -1.03365e-11 0)             (8.89202e-12 -9.25038e-12 0)             (9.01065e-12 -8.2569e-12 0)             (9.10865e-12 -7.30012e-12 0)             (9.18635e-12 -6.36697e-12 0)             (9.27103e-12 -5.05307e-12 0)             (9.3075e-12 -4.20237e-12 0)             (9.33909e-12 -3.0378e-12 0)             (9.34588e-12 -1.9654e-12 0)             (9.3244e-12 -6.6404e-13 0)
          0.6             (1.74988e-11 5.81321e-12 0)             (1.74988e-11 5.81321e-12 0)             (1.74149e-11 6.07508e-12 0)             (1.74149e-11 6.07508e-12 0)             (1.74149e-11 6.07508e-12 0)             (1.69157e-11 -1.5755e-12 0)             (1.69157e-11 -1.5755e-12 0)             (1.57265e-11 -6.91978e-12 0)             (1.57265e-11 -6.91978e-12 0)             (1.4468e-11 -1.28005e-11 0)             (1.4468e-11 -1.28005e-11 0)             (1.29907e-11 -1.75656e-11 0)             (1.29907e-11 -1.75656e-11 0)             (1.29907e-11 -1.75656e-11 0)             (1.14648e-11 -2.13492e-11 0)             (1.14648e-11 -2.13492e-11 0)             (9.94472e-12 -2.43014e-11 0)             (9.94472e-12 -2.43014e-11 0)             (8.50186e-12 -2.66249e-11 0)             (8.50186e-12 -2.66249e-11 0)             (7.17572e-12 -2.84774e-11 0)             (7.17572e-12 -2.84774e-11 0)             (5.99572e-12 -2.99818e-11 0)             (5.99572e-12 -2.99818e-11 0)             (4.97178e-12 -3.12391e-11 0)             (4.10822e-12 -3.23073e-11 0)             (4.10822e-12 -3.23073e-11 0)             (3.4009e-12 -3.32174e-11 0)             (3.4009e-12 -3.32174e-11 0)             (2.84866e-12 -3.40123e-11 0)             (2.84866e-12 -3.40123e-11 0)             (2.43559e-12 -3.47153e-11 0)             (2.15033e-12 -3.53319e-11 0)             (2.15033e-12 -3.53319e-11 0)             (1.97134e-12 -3.58727e-11 0)             (1.88571e-12 -3.63313e-11 0)             (1.88571e-12 -3.63313e-11 0)             (1.87528e-12 -3.66749e-11 0)             (1.92739e-12 -3.68967e-11 0)             (1.92739e-12 -3.68967e-11 0)             (2.03094e-12 -3.70308e-11 0)             (2.18043e-12 -3.70744e-11 0)             (2.36408e-12 -3.70061e-11 0)             (2.36408e-12 -3.70061e-11 0)             (2.57117e-12 -3.68082e-11 0)             (2.79978e-12 -3.64895e-11 0)             (3.04399e-12 -3.60975e-11 0)             (3.29699e-12 -3.56498e-11 0)             (3.5553e-12 -3.5147e-11 0)             (3.81533e-12 -3.45925e-11 0)             (4.07549e-12 -3.39838e-11 0)             (4.33382e-12 -3.33303e-11 0)             (4.58909e-12 -3.26359e-11 0)             (4.84003e-12 -3.18959e-11 0)             (5.08419e-12 -3.11232e-11 0)             (5.32275e-12 -3.03169e-11 0)             (5.55345e-12 -2.94818e-11 0)             (5.77862e-12 -2.8618e-11 0)             (5.99583e-12 -2.77416e-11 0)             (6.40579e-12 -2.59278e-11 0)             (6.59799e-12 -2.50186e-11 0)             (6.78507e-12 -2.40917e-11 0)             (7.14739e-12 -2.22364e-11 0)             (7.31431e-12 -2.13053e-11 0)             (7.62028e-12 -1.94683e-11 0)             (7.88613e-12 -1.76578e-11 0)             (8.0055e-12 -1.67615e-11 0)             (8.21669e-12 -1.501e-11 0)             (8.3925e-12 -1.3334e-11 0)             (8.538e-12 -1.17639e-11 0)             (8.65287e-12 -1.01988e-11 0)             (8.77615e-12 -8.02421e-12 0)             (8.82969e-12 -6.67296e-12 0)             (8.8739e-12 -4.77606e-12 0)             (8.88023e-12 -3.03859e-12 0)             (8.83905e-12 -9.80095e-13 0)
          0.7             (3.31996e-11 2.41394e-12 0)             (3.31996e-11 2.41394e-12 0)             (3.51762e-11 1.58941e-12 0)             (3.51762e-11 1.58941e-12 0)             (3.51762e-11 1.58941e-12 0)             (3.6021e-11 -6.49074e-13 0)             (3.6021e-11 -6.49074e-13 0)             (3.56903e-11 -4.1338e-13 0)             (3.56903e-11 -4.1338e-13 0)             (3.46342e-11 -1.63404e-12 0)             (3.46342e-11 -1.63404e-12 0)             (3.28811e-11 -2.72947e-12 0)             (3.28811e-11 -2.72947e-12 0)             (3.28811e-11 -2.72947e-12 0)             (3.07907e-11 -4.14531e-12 0)             (3.07907e-11 -4.14531e-12 0)             (2.8542e-11 -5.83118e-12 0)             (2.8542e-11 -5.83118e-12 0)             (2.62998e-11 -7.7467e-12 0)             (2.62998e-11 -7.7467e-12 0)             (2.41479e-11 -9.80024e-12 0)             (2.41479e-11 -9.80024e-12 0)             (2.21379e-11 -1.19096e-11 0)             (2.21379e-11 -1.19096e-11 0)             (2.02817e-11 -1.40131e-11 0)             (1.85877e-11 -1.60468e-11 0)             (1.85877e-11 -1.60468e-11 0)             (1.70459e-11 -1.79596e-11 0)             (1.70459e-11 -1.79596e-11 0)             (1.56478e-11 -1.97214e-11 0)             (1.56478e-11 -1.97214e-11 0)             (1.43726e-11 -2.13315e-11 0)             (1.32044e-11 -2.27857e-11 0)             (1.32044e-11 -2.27857e-11 0)             (1.21252e-11 -2.40816e-11 0)             (1.11232e-11 -2.52214e-11 0)             (1.11232e-11 -2.52214e-11 0)             (1.01898e-11 -2.6196e-11 0)             (9.31639e-12 -2.70096e-11 0)             (9.31639e-12 -2.70096e-11 0)             (8.49855e-12 -2.76586e-11 0)             (7.73212e-12 -2.81538e-11 0)             (7.01627e-12 -2.84958e-11 0)             (7.01627e-12 -2.84958e-11 0)             (6.34736e-12 -2.86927e-11 0)             (5.72097e-12 -2.87919e-11 0)             (5.13277e-12 -2.88028e-11 0)             (4.57931e-12 -2.87109e-11 0)             (4.06304e-12 -2.85025e-11 0)             (3.5826e-12 -2.81889e-11 0)             (3.13437e-12 -2.78142e-11 0)             (2.715e-12 -2.74099e-11 0)             (2.32286e-12 -2.69567e-11 0)             (1.95525e-12 -2.64537e-11 0)             (1.61107e-12 -2.59167e-11 0)             (1.28926e-12 -2.53438e-11 0)             (9.89013e-13 -2.47415e-11 0)             (7.09813e-13 -2.41073e-11 0)             (4.49416e-13 -2.34441e-11 0)             (-1.74224e-14 -2.20524e-11 0)             (-2.26631e-13 -2.13413e-11 0)             (-4.15034e-13 -2.06091e-11 0)             (-7.30279e-13 -1.91199e-11 0)             (-8.7058e-13 -1.8374e-11 0)             (-1.12003e-12 -1.68735e-11 0)             (-1.33523e-12 -1.53695e-11 0)             (-1.43128e-12 -1.46341e-11 0)             (-1.60607e-12 -1.31512e-11 0)             (-1.75799e-12 -1.17448e-11 0)             (-1.8915e-12 -1.03905e-11 0)             (-2.01033e-12 -9.05285e-12 0)             (-2.16612e-12 -7.18678e-12 0)             (-2.25547e-12 -6.00079e-12 0)             (-2.37833e-12 -4.34817e-12 0)             (-2.4869e-12 -2.82617e-12 0)             (-2.62232e-12 -9.99389e-13 0)
          0.8             (4.51843e-11 3.48756e-12 0)             (4.51843e-11 3.48756e-12 0)             (4.76274e-11 3.88594e-12 0)             (4.76274e-11 3.88594e-12 0)             (4.76274e-11 3.88594e-12 0)             (4.81425e-11 2.01721e-12 0)             (4.81425e-11 2.01721e-12 0)             (4.75233e-11 2.31529e-12 0)             (4.75233e-11 2.31529e-12 0)             (4.60317e-11 1.01201e-12 0)             (4.60317e-11 1.01201e-12 0)             (4.37824e-11 -9.52849e-14 0)             (4.37824e-11 -9.52849e-14 0)             (4.37824e-11 -9.52849e-14 0)             (4.11801e-11 -1.68266e-12 0)             (4.11801e-11 -1.68266e-12 0)             (3.84262e-11 -3.53593e-12 0)             (3.84262e-11 -3.53593e-12 0)             (3.57054e-11 -5.60462e-12 0)             (3.57054e-11 -5.60462e-12 0)             (3.31095e-11 -7.80611e-12 0)             (3.31095e-11 -7.80611e-12 0)             (3.06943e-11 -1.00637e-11 0)             (3.06943e-11 -1.00637e-11 0)             (2.84799e-11 -1.23144e-11 0)             (2.64676e-11 -1.44926e-11 0)             (2.64676e-11 -1.44926e-11 0)             (2.4644e-11 -1.65515e-11 0)             (2.4644e-11 -1.65515e-11 0)             (2.29968e-11 -1.84661e-11 0)             (2.29968e-11 -1.84661e-11 0)             (2.15039e-11 -2.02232e-11 0)             (2.01464e-11 -2.18194e-11 0)             (2.01464e-11 -2.18194e-11 0)             (1.89069e-11 -2.32376e-11 0)             (1.77687e-11 -2.44759e-11 0)             (1.77687e-11 -2.44759e-11 0)             (1.67173e-11 -2.55364e-11 0)             (1.57444e-11 -2.64156e-11 0)             (1.57444e-11 -2.64156e-11 0)             (1.48378e-11 -2.7113e-11 0)             (1.39944e-11 -2.76537e-11 0)             (1.32067e-11 -2.80462e-11 0)             (1.32067e-11 -2.80462e-11 0)             (1.24719e-11 -2.82865e-11 0)             (1.17886e-11 -2.83756e-11 0)             (1.11538e-11 -2.83573e-11 0)             (1.05621e-11 -2.827e-11 0)             (1.00101e-11 -2.81004e-11 0)             (9.49558e-12 -2.7843e-11 0)             (9.01385e-12 -2.75142e-11 0)             (8.56404e-12 -2.71293e-11 0)             (8.14335e-12 -2.6694e-11 0)             (7.74851e-12 -2.62198e-11 0)             (7.37921e-12 -2.56917e-11 0)             (7.03358e-12 -2.51292e-11 0)             (6.70947e-12 -2.45239e-11 0)             (6.40935e-12 -2.38905e-11 0)             (6.12831e-12 -2.32364e-11 0)             (5.62383e-12 -2.18602e-11 0)             (5.39729e-12 -2.1147e-11 0)             (5.19339e-12 -2.04221e-11 0)             (4.85216e-12 -1.8942e-11 0)             (4.6994e-12 -1.82072e-11 0)             (4.42565e-12 -1.6711e-11 0)             (4.18567e-12 -1.52383e-11 0)             (4.07718e-12 -1.44945e-11 0)             (3.8786e-12 -1.30358e-11 0)             (3.70191e-12 -1.16369e-11 0)             (3.54324e-12 -1.03074e-11 0)             (3.3989e-12 -8.98868e-12 0)             (3.20338e-12 -7.13517e-12 0)             (3.08447e-12 -5.97434e-12 0)             (2.92133e-12 -4.32118e-12 0)             (2.76949e-12 -2.80924e-12 0)             (2.57495e-12 -9.81552e-13 0)