# Probe 0 (15.31 -0.61 0)
# Probe 1 (15.31 -0.6 0)
# Probe 2 (15.31 -0.59 0)
# Probe 3 (15.31 -0.58 0)
# Probe 4 (15.31 -0.57 0)
# Probe 5 (15.31 -0.56 0)
# Probe 6 (15.31 -0.55 0)
# Probe 7 (15.31 -0.54 0)
# Probe 8 (15.31 -0.53 0)
# Probe 9 (15.31 -0.52 0)
# Probe 10 (15.31 -0.51 0)
# Probe 11 (15.31 -0.5 0)
# Probe 12 (15.31 -0.49 0)
# Probe 13 (15.31 -0.48 0)
# Probe 14 (15.31 -0.47 0)
# Probe 15 (15.31 -0.46 0)
# Probe 16 (15.31 -0.45 0)
# Probe 17 (15.31 -0.44 0)
# Probe 18 (15.31 -0.43 0)
# Probe 19 (15.31 -0.42 0)
# Probe 20 (15.31 -0.41 0)
# Probe 21 (15.31 -0.4 0)
# Probe 22 (15.31 -0.39 0)
# Probe 23 (15.31 -0.38 0)
# Probe 24 (15.31 -0.37 0)
# Probe 25 (15.31 -0.36 0)
# Probe 26 (15.31 -0.35 0)
# Probe 27 (15.31 -0.34 0)
# Probe 28 (15.31 -0.33 0)
# Probe 29 (15.31 -0.32 0)
# Probe 30 (15.31 -0.31 0)
# Probe 31 (15.31 -0.3 0)
# Probe 32 (15.31 -0.29 0)
# Probe 33 (15.31 -0.28 0)
# Probe 34 (15.31 -0.27 0)
# Probe 35 (15.31 -0.26 0)
# Probe 36 (15.31 -0.25 0)
# Probe 37 (15.31 -0.24 0)
# Probe 38 (15.31 -0.23 0)
# Probe 39 (15.31 -0.22 0)
# Probe 40 (15.31 -0.21 0)
# Probe 41 (15.31 -0.2 0)
# Probe 42 (15.31 -0.19 0)
# Probe 43 (15.31 -0.18 0)
# Probe 44 (15.31 -0.17 0)
# Probe 45 (15.31 -0.16 0)
# Probe 46 (15.31 -0.15 0)
# Probe 47 (15.31 -0.14 0)
# Probe 48 (15.31 -0.13 0)
# Probe 49 (15.31 -0.12 0)
# Probe 50 (15.31 -0.11 0)
# Probe 51 (15.31 -0.1 0)
# Probe 52 (15.31 -0.09 0)
# Probe 53 (15.31 -0.08 0)
# Probe 54 (15.31 -0.07 0)
# Probe 55 (15.31 -0.06 0)
# Probe 56 (15.31 -0.05 0)
# Probe 57 (15.31 -0.04 0)
# Probe 58 (15.31 -0.03 0)
# Probe 59 (15.31 -0.02 0)
# Probe 60 (15.31 -0.01 0)
# Probe 61 (15.31 0 0)
# Probe 62 (15.31 0.01 0)
# Probe 63 (15.31 0.02 0)
# Probe 64 (15.31 0.03 0)
# Probe 65 (15.31 0.04 0)
# Probe 66 (15.31 0.05 0)
# Probe 67 (15.31 0.06 0)
# Probe 68 (15.31 0.07 0)
# Probe 69 (15.31 0.08 0)
# Probe 70 (15.31 0.09 0)
# Probe 71 (15.31 0.1 0)
# Probe 72 (15.31 0.11 0)
# Probe 73 (15.31 0.12 0)
# Probe 74 (15.31 0.13 0)
# Probe 75 (15.31 0.14 0)
#       Probe             0             1             2             3             4             5             6             7             8             9            10            11            12            13            14            15            16            17            18            19            20            21            22            23            24            25            26            27            28            29            30            31            32            33            34            35            36            37            38            39            40            41            42            43            44            45            46            47            48            49            50            51            52            53            54            55            56            57            58            59            60            61            62            63            64            65            66            67            68            69            70            71            72            73            74            75
#        Time
          0.1             (-3.45348e-11 -1.01801e-12 0)             (-3.55187e-11 -2.25255e-12 0)             (-3.58314e-11 -3.24552e-12 0)             (-3.58314e-11 -3.24552e-12 0)             (-3.59669e-11 -4.44253e-12 0)             (-3.58134e-11 -4.99581e-12 0)             (-3.5175e-11 -5.01791e-12 0)             (-3.40399e-11 -4.76815e-12 0)             (-3.40399e-11 -4.76815e-12 0)             (-3.25286e-11 -4.54426e-12 0)             (-3.0842e-11 -4.36448e-12 0)             (-2.91455e-11 -4.07421e-12 0)             (-2.75476e-11 -3.58769e-12 0)             (-2.60861e-11 -2.96253e-12 0)             (-2.60861e-11 -2.96253e-12 0)             (-2.47496e-11 -2.28757e-12 0)             (-2.35053e-11 -1.6133e-12 0)             (-2.2303e-11 -9.93185e-13 0)             (-2.10944e-11 -4.78564e-13 0)             (-1.98522e-11 -8.98147e-14 0)             (-1.85567e-11 1.82217e-13 0)             (-1.72026e-11 3.56955e-13 0)             (-1.5794e-11 4.37377e-13 0)             (-1.43431e-11 4.41015e-13 0)             (-1.28653e-11 3.94151e-13 0)             (-1.1381e-11 3.08889e-13 0)             (-9.90809e-12 2.04645e-13 0)             (-8.4612e-12 8.31714e-14 0)             (-7.05808e-12 -8.45423e-14 0)             (-5.71944e-12 -2.93099e-13 0)             (-3.25908e-12 -7.31198e-13 0)             (-2.1492e-12 -1.01845e-12 0)             (-1.12058e-12 -1.31647e-12 0)             (-1.66477e-13 -1.60823e-12 0)             (7.02692e-13 -1.91572e-12 0)             (1.49404e-12 -2.25217e-12 0)             (2.83804e-12 -3.09108e-12 0)             (3.39575e-12 -3.51285e-12 0)             (3.88717e-12 -3.93572e-12 0)             (4.69096e-12 -4.85648e-12 0)             (5.01018e-12 -5.33033e-12 0)             (5.5283e-12 -6.32095e-12 0)             (5.73349e-12 -6.81313e-12 0)             (5.90672e-12 -7.32124e-12 0)             (6.17563e-12 -8.34962e-12 0)             (6.35472e-12 -9.36124e-12 0)             (6.41603e-12 -9.8445e-12 0)             (6.49541e-12 -1.07624e-11 0)             (6.51997e-12 -1.12002e-11 0)             (6.54032e-12 -1.20329e-11 0)             (6.53559e-12 -1.27828e-11 0)             (6.51887e-12 -1.35066e-11 0)             (6.50054e-12 -1.41326e-11 0)             (6.48816e-12 -1.4736e-11 0)             (6.48067e-12 -1.52158e-11 0)             (6.48428e-12 -1.56263e-11 0)             (6.49692e-12 -1.59618e-11 0)             (6.51291e-12 -1.61717e-11 0)             (6.5319e-12 -1.62883e-11 0)             (6.57819e-12 -1.63169e-11 0)             (6.6217e-12 -1.62334e-11 0)             (6.71154e-12 -1.59172e-11 0)             (6.8228e-12 -1.54889e-11 0)             (6.90657e-12 -1.51282e-11 0)             (7.04686e-12 -1.44721e-11 0)             (7.24455e-12 -1.34756e-11 0)             (7.39657e-12 -1.26266e-11 0)             (7.54758e-12 -1.17976e-11 0)             (7.73757e-12 -1.05943e-11 0)             (7.90935e-12 -9.36291e-12 0)             (8.06358e-12 -8.14597e-12 0)             (8.22543e-12 -6.65533e-12 0)             (8.33139e-12 -5.4694e-12 0)             (8.44891e-12 -3.74343e-12 0)             (8.51628e-12 -2.39822e-12 0)             (8.5697e-12 -7.54636e-13 0)
          0.2             (1.09741e-11 1.29882e-12 0)             (1.10517e-11 1.64573e-12 0)             (1.11578e-11 -3.73065e-13 0)             (1.11578e-11 -3.73065e-13 0)             (1.14949e-11 -1.7387e-12 0)             (1.18161e-11 -1.80161e-12 0)             (1.20118e-11 -1.37852e-12 0)             (1.2035e-11 -1.449e-12 0)             (1.2035e-11 -1.449e-12 0)             (1.18756e-11 -2.46205e-12 0)             (1.14908e-11 -4.3297e-12 0)             (1.08672e-11 -6.6516e-12 0)             (1.00077e-11 -9.01067e-12 0)             (8.94705e-12 -1.11574e-11 0)             (8.94705e-12 -1.11574e-11 0)             (7.73722e-12 -1.2917e-11 0)             (6.44741e-12 -1.42652e-11 0)             (5.15074e-12 -1.52873e-11 0)             (3.90959e-12 -1.6014e-11 0)             (2.7624e-12 -1.65014e-11 0)             (1.73774e-12 -1.6857e-11 0)             (8.6042e-13 -1.71692e-11 0)             (1.33504e-13 -1.7482e-11 0)             (-4.45708e-13 -1.78313e-11 0)             (-8.92562e-13 -1.82243e-11 0)             (-1.22792e-12 -1.86362e-11 0)             (-1.4741e-12 -1.90499e-11 0)             (-1.64827e-12 -1.94477e-11 0)             (-1.7716e-12 -1.98138e-11 0)             (-1.85655e-12 -2.01163e-11 0)             (-1.94404e-12 -2.04998e-11 0)             (-1.95966e-12 -2.05619e-11 0)             (-1.95757e-12 -2.05415e-11 0)             (-1.94096e-12 -2.04368e-11 0)             (-1.91415e-12 -2.02296e-11 0)             (-1.8748e-12 -1.99313e-11 0)             (-1.75718e-12 -1.91523e-11 0)             (-1.68306e-12 -1.86472e-11 0)             (-1.59678e-12 -1.80901e-11 0)             (-1.39471e-12 -1.68443e-11 0)             (-1.2827e-12 -1.61878e-11 0)             (-1.04339e-12 -1.48036e-11 0)             (-9.16918e-13 -1.40742e-11 0)             (-7.88738e-13 -1.33364e-11 0)             (-5.25266e-13 -1.18365e-11 0)             (-2.67094e-13 -1.03275e-11 0)             (-1.39936e-13 -9.58569e-12 0)             (9.79793e-14 -8.11718e-12 0)             (2.07978e-13 -7.39451e-12 0)             (4.04984e-13 -5.97169e-12 0)             (5.62138e-13 -4.64104e-12 0)             (6.78479e-13 -3.37286e-12 0)             (7.48478e-13 -2.18855e-12 0)             (7.72637e-13 -1.07906e-12 0)             (7.5088e-13 -1.02801e-13 0)             (6.84705e-13 8.23922e-13 0)             (5.78035e-13 1.63837e-12 0)             (4.39357e-13 2.36494e-12 0)             (2.73007e-13 3.01368e-12 0)             (-1.4422e-14 3.82686e-12 0)             (-2.27314e-13 4.22973e-12 0)             (-5.65461e-13 4.76593e-12 0)             (-9.19903e-13 5.12898e-12 0)             (-1.15941e-12 5.2604e-12 0)             (-1.52053e-12 5.42217e-12 0)             (-1.99047e-12 5.44786e-12 0)             (-2.32813e-12 5.36421e-12 0)             (-2.64936e-12 5.16991e-12 0)             (-3.04395e-12 4.85816e-12 0)             (-3.3986e-12 4.42764e-12 0)             (-3.7054e-12 3.92711e-12 0)             (-4.03089e-12 3.29631e-12 0)             (-4.23891e-12 2.75903e-12 0)             (-4.47837e-12 1.91272e-12 0)             (-4.61955e-12 1.33218e-12 0)             (-4.73255e-12 4.87481e-13 0)
          0.3             (1.41751e-12 -1.01119e-12 0)             (1.23773e-12 -3.20247e-12 0)             (9.47402e-13 -4.33613e-12 0)             (9.47402e-13 -4.33613e-12 0)             (5.99491e-13 -5.2226e-12 0)             (3.38904e-13 -7.46192e-12 0)             (1.53483e-13 -9.70053e-12 0)             (6.0824e-14 -1.09329e-11 0)             (6.0824e-14 -1.09329e-11 0)             (1.42379e-13 -1.10615e-11 0)             (4.76036e-13 -1.05566e-11 0)             (1.11723e-12 -9.95281e-12 0)             (2.00665e-12 -9.60113e-12 0)             (3.02928e-12 -9.66479e-12 0)             (3.02928e-12 -9.66479e-12 0)             (4.05514e-12 -1.00867e-11 0)             (4.97091e-12 -1.07204e-11 0)             (5.71344e-12 -1.14845e-11 0)             (6.2617e-12 -1.22509e-11 0)             (6.60834e-12 -1.29139e-11 0)             (6.76827e-12 -1.34612e-11 0)             (6.76695e-12 -1.3902e-11 0)             (6.63036e-12 -1.42263e-11 0)             (6.39503e-12 -1.44503e-11 0)             (6.09146e-12 -1.46179e-11 0)             (5.74455e-12 -1.47374e-11 0)             (5.37153e-12 -1.48439e-11 0)             (4.99185e-12 -1.49436e-11 0)             (4.61172e-12 -1.5036e-11 0)             (4.24339e-12 -1.51256e-11 0)             (3.54804e-12 -1.52867e-11 0)             (3.22447e-12 -1.53649e-11 0)             (2.91436e-12 -1.54249e-11 0)             (2.61731e-12 -1.54709e-11 0)             (2.32813e-12 -1.55161e-11 0)             (2.05172e-12 -1.55391e-11 0)             (1.52792e-12 -1.55781e-11 0)             (1.27768e-12 -1.55634e-11 0)             (1.03011e-12 -1.5533e-11 0)             (5.43912e-13 -1.54252e-11 0)             (3.02871e-13 -1.53522e-11 0)             (-1.72673e-13 -1.51508e-11 0)             (-4.01487e-13 -1.50227e-11 0)             (-6.25713e-13 -1.48845e-11 0)             (-1.03644e-12 -1.45908e-11 0)             (-1.39533e-12 -1.4246e-11 0)             (-1.5508e-12 -1.40668e-11 0)             (-1.81144e-12 -1.37054e-11 0)             (-1.91525e-12 -1.35197e-11 0)             (-2.07074e-12 -1.31175e-11 0)             (-2.15682e-12 -1.27279e-11 0)             (-2.17891e-12 -1.22974e-11 0)             (-2.14321e-12 -1.18543e-11 0)             (-2.05247e-12 -1.14278e-11 0)             (-1.91786e-12 -1.09259e-11 0)             (-1.74164e-12 -1.046e-11 0)             (-1.53344e-12 -9.9232e-12 0)             (-1.29284e-12 -9.41929e-12 0)             (-1.02714e-12 -8.90331e-12 0)             (-5.94041e-13 -8.15655e-12 0)             (-2.87637e-13 -7.66685e-12 0)             (1.91256e-13 -7.00798e-12 0)             (6.77483e-13 -6.37949e-12 0)             (1.00003e-12 -5.99776e-12 0)             (1.47262e-12 -5.42996e-12 0)             (2.07305e-12 -4.73354e-12 0)             (2.49183e-12 -4.26551e-12 0)             (2.88606e-12 -3.79758e-12 0)             (3.35519e-12 -3.23367e-12 0)             (3.76948e-12 -2.71975e-12 0)             (4.12591e-12 -2.3013e-12 0)             (4.49664e-12 -1.71547e-12 0)             (4.73773e-12 -1.37944e-12 0)             (5.01548e-12 -8.7427e-13 0)             (5.17961e-12 -5.4946e-13 0)             (5.32904e-12 -7.45789e-14 0)
          0.4             (4.63706e-12 -8.05718e-13 0)             (3.5914e-12 -2.19706e-12 0)             (3.44803e-12 -2.8472e-12 0)             (3.44803e-12 -2.8472e-12 0)             (3.56139e-12 -3.53751e-12 0)             (3.38095e-12 -4.58983e-12 0)             (2.76988e-12 -5.62456e-12 0)             (2.03597e-12 -6.96456e-12 0)             (2.03597e-12 -6.96456e-12 0)             (1.53455e-12 -8.56119e-12 0)             (1.39617e-12 -1.02343e-11 0)             (1.61396e-12 -1.15903e-11 0)             (2.04588e-12 -1.2407e-11 0)             (2.54513e-12 -1.26683e-11 0)             (2.54513e-12 -1.26683e-11 0)             (2.97906e-12 -1.24021e-11 0)             (3.27602e-12 -1.17201e-11 0)             (3.41796e-12 -1.08246e-11 0)             (3.42176e-12 -9.91499e-12 0)             (3.3177e-12 -9.12774e-12 0)             (3.13891e-12 -8.54499e-12 0)             (2.92163e-12 -8.22211e-12 0)             (2.68333e-12 -8.15356e-12 0)             (2.44616e-12 -8.27373e-12 0)             (2.20497e-12 -8.54039e-12 0)             (1.95704e-12 -8.91405e-12 0)             (1.70475e-12 -9.33544e-12 0)             (1.43912e-12 -9.77951e-12 0)             (1.15851e-12 -1.02223e-11 0)             (8.6002e-13 -1.06429e-11 0)             (2.12629e-13 -1.13487e-11 0)             (-1.35981e-13 -1.1636e-11 0)             (-5.00441e-13 -1.19101e-11 0)             (-8.75279e-13 -1.21688e-11 0)             (-1.25936e-12 -1.24067e-11 0)             (-1.64565e-12 -1.26069e-11 0)             (-2.42136e-12 -1.29089e-11 0)             (-2.80392e-12 -1.30123e-11 0)             (-3.18282e-12 -1.31195e-11 0)             (-3.92211e-12 -1.3312e-11 0)             (-4.28092e-12 -1.34127e-11 0)             (-4.96388e-12 -1.36085e-11 0)             (-5.28303e-12 -1.37242e-11 0)             (-5.58501e-12 -1.38323e-11 0)             (-6.12853e-12 -1.40316e-11 0)             (-6.58788e-12 -1.42556e-11 0)             (-6.78445e-12 -1.43406e-11 0)             (-7.11359e-12 -1.45411e-11 0)             (-7.24701e-12 -1.46427e-11 0)             (-7.45324e-12 -1.48072e-11 0)             (-7.58155e-12 -1.49217e-11 0)             (-7.63989e-12 -1.50206e-11 0)             (-7.6345e-12 -1.50457e-11 0)             (-7.57179e-12 -1.50182e-11 0)             (-7.45829e-12 -1.49293e-11 0)             (-7.29686e-12 -1.4795e-11 0)             (-7.09651e-12 -1.45952e-11 0)             (-6.85719e-12 -1.43376e-11 0)             (-6.58777e-12 -1.40253e-11 0)             (-6.14508e-12 -1.34884e-11 0)             (-5.82955e-12 -1.30644e-11 0)             (-5.33874e-12 -1.2406e-11 0)             (-4.83598e-12 -1.16703e-11 0)             (-4.50237e-12 -1.11908e-11 0)             (-4.01013e-12 -1.04258e-11 0)             (-3.38493e-12 -9.41543e-12 0)             (-2.94231e-12 -8.6971e-12 0)             (-2.53101e-12 -7.99143e-12 0)             (-2.03649e-12 -7.16323e-12 0)             (-1.60762e-12 -6.41048e-12 0)             (-1.23839e-12 -5.67245e-12 0)             (-8.63546e-13 -4.79623e-12 0)             (-6.25313e-13 -4.04963e-12 0)             (-3.52364e-13 -2.97355e-12 0)             (-1.88259e-13 -2.0931e-12 0)             (-3.9835e-14 -9.45802e-13 0)
          0.5             (1.0096e-11 1.94221e-12 0)             (9.23332e-12 1.53067e-12 0)             (9.07538e-12 -1.52095e-12 0)             (9.07538e-12 -1.52095e-12 0)             (8.7985e-12 -1.79128e-12 0)             (8.37603e-12 -5.44237e-13 0)             (7.80708e-12 3.32885e-14 0)             (7.04674e-12 -1.04547e-12 0)             (7.04674e-12 -1.04547e-12 0)             (6.05361e-12 -2.86745e-12 0)             (4.79836e-12 -4.64867e-12 0)             (3.37521e-12 -5.84475e-12 0)             (1.92721e-12 -6.32968e-12 0)             (5.88468e-13 -6.25697e-12 0)             (5.88468e-13 -6.25697e-12 0)             (-5.56021e-13 -5.88444e-12 0)             (-1.43093e-12 -5.47955e-12 0)             (-2.03092e-12 -5.1644e-12 0)             (-2.38724e-12 -4.9968e-12 0)             (-2.56104e-12 -4.99056e-12 0)             (-2.62357e-12 -5.10615e-12 0)             (-2.64364e-12 -5.31264e-12 0)             (-2.66788e-12 -5.5712e-12 0)             (-2.73555e-12 -5.83975e-12 0)             (-2.86798e-12 -6.09671e-12 0)             (-3.07427e-12 -6.34975e-12 0)             (-3.34562e-12 -6.60859e-12 0)             (-3.6803e-12 -6.83322e-12 0)             (-4.06283e-12 -7.03272e-12 0)             (-4.48793e-12 -7.21375e-12 0)             (-5.39149e-12 -7.49593e-12 0)             (-5.84521e-12 -7.64353e-12 0)             (-6.2891e-12 -7.77798e-12 0)             (-6.70979e-12 -7.93704e-12 0)             (-7.10402e-12 -8.11749e-12 0)             (-7.46093e-12 -8.27462e-12 0)             (-8.06647e-12 -8.65079e-12 0)             (-8.31564e-12 -8.83591e-12 0)             (-8.52761e-12 -9.02508e-12 0)             (-8.8541e-12 -9.47643e-12 0)             (-8.97141e-12 -9.71859e-12 0)             (-9.13105e-12 -1.02556e-11 0)             (-9.1734e-12 -1.05241e-11 0)             (-9.19489e-12 -1.08143e-11 0)             (-9.17897e-12 -1.13834e-11 0)             (-9.09663e-12 -1.19567e-11 0)             (-9.03488e-12 -1.22544e-11 0)             (-8.87443e-12 -1.281e-11 0)             (-8.77829e-12 -1.30916e-11 0)             (-8.56512e-12 -1.35888e-11 0)             (-8.32534e-12 -1.40508e-11 0)             (-8.06521e-12 -1.44459e-11 0)             (-7.79322e-12 -1.47738e-11 0)             (-7.51216e-12 -1.50152e-11 0)             (-7.22302e-12 -1.52426e-11 0)             (-6.93354e-12 -1.53644e-11 0)             (-6.6372e-12 -1.54337e-11 0)             (-6.34087e-12 -1.54188e-11 0)             (-6.04377e-12 -1.53672e-11 0)             (-5.60449e-12 -1.51592e-11 0)             (-5.316e-12 -1.49279e-11 0)             (-4.89712e-12 -1.44964e-11 0)             (-4.48484e-12 -1.39854e-11 0)             (-4.22383e-12 -1.36241e-11 0)             (-3.84915e-12 -1.2983e-11 0)             (-3.39349e-12 -1.20687e-11 0)             (-3.08347e-12 -1.13324e-11 0)             (-2.80298e-12 -1.0553e-11 0)             (-2.47413e-12 -9.54317e-12 0)             (-2.19134e-12 -8.52552e-12 0)             (-1.9558e-12 -7.47636e-12 0)             (-1.71582e-12 -6.20852e-12 0)             (-1.56449e-12 -5.19067e-12 0)             (-1.39317e-12 -3.71003e-12 0)             (-1.2953e-12 -2.61293e-12 0)             (-1.20796e-12 -1.11251e-12 0)
          0.6             (1.35528e-11 3.03156e-12 0)             (1.2359e-11 1.60003e-12 0)             (1.19028e-11 -3.47151e-12 0)             (1.19028e-11 -3.47151e-12 0)             (1.13864e-11 -3.34243e-12 0)             (1.07322e-11 -1.65558e-12 0)             (9.82151e-12 -1.2158e-12 0)             (8.61554e-12 -2.99618e-12 0)             (8.61554e-12 -2.99618e-12 0)             (7.12145e-12 -5.57973e-12 0)             (5.37663e-12 -7.87866e-12 0)             (3.53705e-12 -9.2703e-12 0)             (1.76944e-12 -9.63344e-12 0)             (2.24115e-13 -9.27919e-12 0)             (2.24115e-13 -9.27919e-12 0)             (-1.00002e-12 -8.55637e-12 0)             (-1.85594e-12 -7.81785e-12 0)             (-2.37553e-12 -7.28971e-12 0)             (-2.62191e-12 -7.05027e-12 0)             (-2.68903e-12 -7.07053e-12 0)             (-2.66484e-12 -7.29636e-12 0)             (-2.63638e-12 -7.66762e-12 0)             (-2.66394e-12 -8.08943e-12 0)             (-2.7839e-12 -8.50998e-12 0)             (-3.0234e-12 -8.87598e-12 0)             (-3.3786e-12 -9.18225e-12 0)             (-3.84064e-12 -9.4124e-12 0)             (-4.38921e-12 -9.57385e-12 0)             (-5.00342e-12 -9.68688e-12 0)             (-5.66506e-12 -9.74426e-12 0)             (-7.03124e-12 -9.76186e-12 0)             (-7.70061e-12 -9.75459e-12 0)             (-8.34109e-12 -9.73213e-12 0)             (-8.93853e-12 -9.71934e-12 0)             (-9.4904e-12 -9.73335e-12 0)             (-9.99051e-12 -9.74698e-12 0)             (-1.08175e-11 -9.82161e-12 0)             (-1.11484e-11 -9.87397e-12 0)             (-1.14263e-11 -9.92831e-12 0)             (-1.18285e-11 -1.01177e-11 0)             (-1.19633e-11 -1.02469e-11 0)             (-1.21128e-11 -1.05292e-11 0)             (-1.21339e-11 -1.07123e-11 0)             (-1.21226e-11 -1.09022e-11 0)             (-1.20243e-11 -1.12981e-11 0)             (-1.18355e-11 -1.17327e-11 0)             (-1.1712e-11 -1.19464e-11 0)             (-1.14232e-11 -1.23767e-11 0)             (-1.12604e-11 -1.25888e-11 0)             (-1.08994e-11 -1.30065e-11 0)             (-1.05087e-11 -1.33682e-11 0)             (-1.00869e-11 -1.36945e-11 0)             (-9.64333e-12 -1.39443e-11 0)             (-9.1838e-12 -1.41312e-11 0)             (-8.70873e-12 -1.42726e-11 0)             (-8.2245e-12 -1.43431e-11 0)             (-7.73331e-12 -1.43542e-11 0)             (-7.24022e-12 -1.43213e-11 0)             (-6.74509e-12 -1.42381e-11 0)             (-6.01423e-12 -1.40065e-11 0)             (-5.53874e-12 -1.38095e-11 0)             (-4.83639e-12 -1.34127e-11 0)             (-4.14552e-12 -1.29602e-11 0)             (-3.70484e-12 -1.25897e-11 0)             (-3.08228e-12 -1.20228e-11 0)             (-2.32697e-12 -1.12027e-11 0)             (-1.81735e-12 -1.05474e-11 0)             (-1.3603e-12 -9.87923e-12 0)             (-8.28451e-13 -8.92913e-12 0)             (-3.80315e-13 -7.9657e-12 0)             (-7.13016e-15 -7.06946e-12 0)             (3.58663e-13 -5.87118e-12 0)             (5.83226e-13 -4.91545e-12 0)             (8.32167e-13 -3.556e-12 0)             (9.68709e-13 -2.48535e-12 0)             (1.07073e-12 -1.08152e-12 0)
          0.7             (1.70308e-11 3.66993e-12 0)             (1.56863e-11 1.36942e-12 0)             (1.5174e-11 -4.89445e-12 0)             (1.5174e-11 -4.89445e-12 0)             (1.46527e-11 -4.31391e-12 0)             (1.39255e-11 -2.50928e-12 0)             (1.28125e-11 -2.42901e-12 0)             (1.13453e-11 -4.89635e-12 0)             (1.13453e-11 -4.89635e-12 0)             (9.61032e-12 -8.1039e-12 0)             (7.70032e-12 -1.07971e-11 0)             (5.78524e-12 -1.22749e-11 0)             (4.04073e-12 -1.24888e-11 0)             (2.60373e-12 -1.18385e-11 0)             (2.60373e-12 -1.18385e-11 0)             (1.54396e-12 -1.07995e-11 0)             (8.76938e-13 -9.79758e-12 0)             (5.38855e-13 -9.08294e-12 0)             (4.4311e-13 -8.77365e-12 0)             (4.75357e-13 -8.87188e-12 0)             (5.25354e-13 -9.28786e-12 0)             (5.0645e-13 -9.91042e-12 0)             (3.60525e-13 -1.06053e-11 0)             (5.65791e-14 -1.12672e-11 0)             (-4.15157e-13 -1.18507e-11 0)             (-1.04444e-12 -1.23251e-11 0)             (-1.80749e-12 -1.2675e-11 0)             (-2.67031e-12 -1.2883e-11 0)             (-3.60889e-12 -1.29817e-11 0)             (-4.58601e-12 -1.30124e-11 0)             (-6.54949e-12 -1.29266e-11 0)             (-7.49177e-12 -1.28456e-11 0)             (-8.38253e-12 -1.27458e-11 0)             (-9.21399e-12 -1.26387e-11 0)             (-9.97534e-12 -1.25447e-11 0)             (-1.06652e-11 -1.24387e-11 0)             (-1.18123e-11 -1.22732e-11 0)             (-1.22718e-11 -1.21938e-11 0)             (-1.26591e-11 -1.21188e-11 0)             (-1.32341e-11 -1.20246e-11 0)             (-1.34297e-11 -1.20079e-11 0)             (-1.3658e-11 -1.19848e-11 0)             (-1.37011e-11 -1.20081e-11 0)             (-1.37024e-11 -1.20542e-11 0)             (-1.35894e-11 -1.21402e-11 0)             (-1.33503e-11 -1.22892e-11 0)             (-1.31925e-11 -1.23459e-11 0)             (-1.28105e-11 -1.24735e-11 0)             (-1.25892e-11 -1.25515e-11 0)             (-1.21044e-11 -1.26821e-11 0)             (-1.15663e-11 -1.27862e-11 0)             (-1.0985e-11 -1.28244e-11 0)             (-1.03705e-11 -1.28035e-11 0)             (-9.72821e-12 -1.27826e-11 0)             (-9.06477e-12 -1.26835e-11 0)             (-8.38904e-12 -1.25702e-11 0)             (-7.70718e-12 -1.24282e-11 0)             (-7.02351e-12 -1.22467e-11 0)             (-6.3453e-12 -1.20551e-11 0)             (-5.35062e-12 -1.17139e-11 0)             (-4.70543e-12 -1.14601e-11 0)             (-3.75847e-12 -1.10499e-11 0)             (-2.82244e-12 -1.05932e-11 0)             (-2.22992e-12 -1.03021e-11 0)             (-1.39355e-12 -9.81515e-12 0)             (-3.85548e-13 -9.12475e-12 0)             (2.92599e-13 -8.57094e-12 0)             (9.01541e-13 -7.9842e-12 0)             (1.61113e-12 -7.1826e-12 0)             (2.21054e-12 -6.39989e-12 0)             (2.70815e-12 -5.64012e-12 0)             (3.19796e-12 -4.66168e-12 0)             (3.49607e-12 -3.91344e-12 0)             (3.81582e-12 -2.81438e-12 0)             (3.98633e-12 -1.93325e-12 0)             (4.10509e-12 -8.72587e-13 0)
          0.8             (1.71039e-11 3.69409e-12 0)             (1.76404e-11 3.46305e-12 0)             (1.66446e-11 4.02941e-13 0)             (1.66446e-11 4.02941e-13 0)             (1.53501e-11 9.69583e-13 0)             (1.4664e-11 1.35807e-12 0)             (1.4316e-11 2.22986e-12 0)             (1.3626e-11 2.48885e-12 0)             (1.3626e-11 2.48885e-12 0)             (1.23846e-11 2.45511e-12 0)             (1.06469e-11 1.98948e-12 0)             (8.69109e-12 1.0682e-12 0)             (6.80356e-12 -2.62102e-13 0)             (5.17006e-12 -1.83741e-12 0)             (5.17006e-12 -1.83741e-12 0)             (3.85652e-12 -3.40787e-12 0)             (2.85749e-12 -4.78264e-12 0)             (2.08994e-12 -5.82506e-12 0)             (1.47745e-12 -6.45805e-12 0)             (9.28398e-13 -6.69784e-12 0)             (3.68974e-13 -6.61899e-12 0)             (-2.39992e-13 -6.27866e-12 0)             (-9.19522e-13 -5.81533e-12 0)             (-1.66019e-12 -5.32625e-12 0)             (-2.45121e-12 -4.87919e-12 0)             (-3.26249e-12 -4.53515e-12 0)             (-4.07899e-12 -4.28921e-12 0)             (-4.87583e-12 -4.17379e-12 0)             (-5.64598e-12 -4.19122e-12 0)             (-6.37955e-12 -4.31155e-12 0)             (-7.69765e-12 -4.85603e-12 0)             (-8.27334e-12 -5.26066e-12 0)             (-8.78843e-12 -5.7333e-12 0)             (-9.24368e-12 -6.21942e-12 0)             (-9.6406e-12 -6.72335e-12 0)             (-9.97861e-12 -7.24163e-12 0)             (-1.04837e-11 -8.24113e-12 0)             (-1.06546e-11 -8.69292e-12 0)             (-1.07757e-11 -9.13251e-12 0)             (-1.088e-11 -9.91653e-12 0)             (-1.08718e-11 -1.02781e-11 0)             (-1.07451e-11 -1.09509e-11 0)             (-1.06366e-11 -1.12543e-11 0)             (-1.0498e-11 -1.15469e-11 0)             (-1.01469e-11 -1.20958e-11 0)             (-9.71237e-12 -1.257e-11 0)             (-9.47158e-12 -1.2786e-11 0)             (-8.94646e-12 -1.32035e-11 0)             (-8.66739e-12 -1.33737e-11 0)             (-8.08263e-12 -1.3697e-11 0)             (-7.47033e-12 -1.39614e-11 0)             (-6.83481e-12 -1.41307e-11 0)             (-6.18634e-12 -1.42661e-11 0)             (-5.52625e-12 -1.43318e-11 0)             (-4.86565e-12 -1.43745e-11 0)             (-4.20721e-12 -1.43571e-11 0)             (-3.55329e-12 -1.43146e-11 0)             (-2.9101e-12 -1.42228e-11 0)             (-2.27863e-12 -1.40907e-11 0)             (-1.37284e-12 -1.37911e-11 0)             (-7.98971e-13 -1.35567e-11 0)             (3.59806e-14 -1.30794e-11 0)             (8.65021e-13 -1.25495e-11 0)             (1.38414e-12 -1.21592e-11 0)             (2.10902e-12 -1.15441e-11 0)             (2.97341e-12 -1.06414e-11 0)             (3.54857e-12 -9.93119e-12 0)             (4.06172e-12 -9.19704e-12 0)             (4.64854e-12 -8.18953e-12 0)             (5.13321e-12 -7.15448e-12 0)             (5.52182e-12 -6.15998e-12 0)             (5.89119e-12 -4.97905e-12 0)             (6.10576e-12 -4.03328e-12 0)             (6.32416e-12 -2.77292e-12 0)             (6.42759e-12 -1.81638e-12 0)             (6.4777e-12 -5.61215e-13 0)