# Probe 0 (15.31 -0.61 0)
# Probe 1 (15.31 -0.6 0)
# Probe 2 (15.31 -0.59 0)
# Probe 3 (15.31 -0.58 0)
# Probe 4 (15.31 -0.57 0)
# Probe 5 (15.31 -0.56 0)
# Probe 6 (15.31 -0.55 0)
# Probe 7 (15.31 -0.54 0)
# Probe 8 (15.31 -0.53 0)
# Probe 9 (15.31 -0.52 0)
# Probe 10 (15.31 -0.51 0)
# Probe 11 (15.31 -0.5 0)
# Probe 12 (15.31 -0.49 0)
# Probe 13 (15.31 -0.48 0)
# Probe 14 (15.31 -0.47 0)
# Probe 15 (15.31 -0.46 0)
# Probe 16 (15.31 -0.45 0)
# Probe 17 (15.31 -0.44 0)
# Probe 18 (15.31 -0.43 0)
# Probe 19 (15.31 -0.42 0)
# Probe 20 (15.31 -0.41 0)
# Probe 21 (15.31 -0.4 0)
# Probe 22 (15.31 -0.39 0)
# Probe 23 (15.31 -0.38 0)
# Probe 24 (15.31 -0.37 0)
# Probe 25 (15.31 -0.36 0)
# Probe 26 (15.31 -0.35 0)
# Probe 27 (15.31 -0.34 0)
# Probe 28 (15.31 -0.33 0)
# Probe 29 (15.31 -0.32 0)
# Probe 30 (15.31 -0.31 0)
# Probe 31 (15.31 -0.3 0)
# Probe 32 (15.31 -0.29 0)
# Probe 33 (15.31 -0.28 0)
# Probe 34 (15.31 -0.27 0)
# Probe 35 (15.31 -0.26 0)
# Probe 36 (15.31 -0.25 0)
# Probe 37 (15.31 -0.24 0)
# Probe 38 (15.31 -0.23 0)
# Probe 39 (15.31 -0.22 0)
# Probe 40 (15.31 -0.21 0)
# Probe 41 (15.31 -0.2 0)
# Probe 42 (15.31 -0.19 0)
# Probe 43 (15.31 -0.18 0)
# Probe 44 (15.31 -0.17 0)
# Probe 45 (15.31 -0.16 0)
# Probe 46 (15.31 -0.15 0)
# Probe 47 (15.31 -0.14 0)
# Probe 48 (15.31 -0.13 0)
# Probe 49 (15.31 -0.12 0)
# Probe 50 (15.31 -0.11 0)
# Probe 51 (15.31 -0.1 0)
# Probe 52 (15.31 -0.09 0)
# Probe 53 (15.31 -0.08 0)
# Probe 54 (15.31 -0.07 0)
# Probe 55 (15.31 -0.06 0)
# Probe 56 (15.31 -0.05 0)
# Probe 57 (15.31 -0.04 0)
# Probe 58 (15.31 -0.03 0)
# Probe 59 (15.31 -0.02 0)
# Probe 60 (15.31 -0.01 0)
# Probe 61 (15.31 0 0)
# Probe 62 (15.31 0.01 0)
# Probe 63 (15.31 0.02 0)
# Probe 64 (15.31 0.03 0)
# Probe 65 (15.31 0.04 0)
# Probe 66 (15.31 0.05 0)
# Probe 67 (15.31 0.06 0)
# Probe 68 (15.31 0.07 0)
# Probe 69 (15.31 0.08 0)
# Probe 70 (15.31 0.09 0)
# Probe 71 (15.31 0.1 0)
# Probe 72 (15.31 0.11 0)
# Probe 73 (15.31 0.12 0)
# Probe 74 (15.31 0.13 0)
# Probe 75 (15.31 0.14 0)
#       Probe             0             1             2             3             4             5             6             7             8             9            10            11            12            13            14            15            16            17            18            19            20            21            22            23            24            25            26            27            28            29            30            31            32            33            34            35            36            37            38            39            40            41            42            43            44            45            46            47            48            49            50            51            52            53            54            55            56            57            58            59            60            61            62            63            64            65            66            67            68            69            70            71            72            73            74            75
#        Time
          0.1             (-4.43663e-12 -6.34504e-13 0)             (-4.21162e-12 -2.33349e-13 0)             (-3.80838e-12 5.23437e-14 0)             (-3.26512e-12 3.19157e-13 0)             (-2.64634e-12 5.95765e-13 0)             (-1.42133e-12 1.28784e-12 0)             (-9.04908e-13 1.65401e-12 0)             (-4.80079e-13 2.03813e-12 0)             (-1.55773e-13 2.40546e-12 0)             (2.04748e-13 2.93046e-12 0)             (2.57447e-13 3.0612e-12 0)             (2.43319e-13 3.10388e-12 0)             (5.9425e-14 2.8885e-12 0)             (-7.72894e-14 2.64512e-12 0)             (-2.30152e-13 2.30937e-12 0)             (-5.5223e-13 1.51143e-12 0)             (-7.01455e-13 1.05634e-12 0)             (-8.37897e-13 5.9474e-13 0)             (-1.05176e-12 -3.35377e-13 0)             (-1.12425e-12 -7.8303e-13 0)             (-1.18458e-12 -1.61262e-12 0)             (-1.17034e-12 -2.00857e-12 0)             (-1.12399e-12 -2.36327e-12 0)             (-9.35498e-13 -3.00939e-12 0)             (-7.90885e-13 -3.29251e-12 0)             (-4.088e-13 -3.77277e-12 0)             (-1.67106e-13 -3.95813e-12 0)             (4.06304e-13 -4.26447e-12 0)             (1.09937e-12 -4.48234e-12 0)             (1.48706e-12 -4.54815e-12 0)             (2.34285e-12 -4.6162e-12 0)             (2.80471e-12 -4.64263e-12 0)             (3.78315e-12 -4.59995e-12 0)             (4.818e-12 -4.56537e-12 0)             (5.35045e-12 -4.52989e-12 0)             (6.43149e-12 -4.42165e-12 0)             (7.51672e-12 -4.23815e-12 0)             (8.59276e-12 -4.02648e-12 0)             (9.12279e-12 -3.90473e-12 0)             (1.01561e-11 -3.63665e-12 0)             (1.11482e-11 -3.34661e-12 0)             (1.20794e-11 -3.03935e-12 0)             (1.29405e-11 -2.76235e-12 0)             (1.37189e-11 -2.44247e-12 0)             (1.44069e-11 -2.21515e-12 0)             (1.49957e-11 -1.9652e-12 0)             (1.54829e-11 -1.73097e-12 0)             (1.58619e-11 -1.52203e-12 0)             (1.61361e-11 -1.35826e-12 0)             (1.63058e-11 -1.21689e-12 0)             (1.63722e-11 -1.13083e-12 0)             (1.6342e-11 -1.06577e-12 0)             (1.62185e-11 -1.02723e-12 0)             (1.58882e-11 -8.74557e-13 0)             (1.55899e-11 -7.91344e-13 0)             (1.52408e-11 -7.21656e-13 0)             (1.46278e-11 -6.87504e-13 0)             (1.41686e-11 -6.51046e-13 0)             (1.34236e-11 -6.77069e-13 0)             (1.28941e-11 -6.88327e-13 0)             (1.20695e-11 -7.46435e-13 0)             (1.15049e-11 -7.8272e-13 0)             (1.06518e-11 -8.51966e-13 0)             (9.79917e-12 -9.34335e-13 0)             (8.96303e-12 -1.01154e-12 0)             (8.15732e-12 -1.11298e-12 0)             (7.394e-12 -1.12908e-12 0)             (6.68039e-12 -1.16845e-12 0)             (6.02802e-12 -1.15711e-12 0)             (5.44418e-12 -1.14553e-12 0)             (4.93333e-12 -1.08669e-12 0)             (4.49621e-12 -1.00257e-12 0)             (4.02835e-12 -8.42621e-13 0)             (3.76351e-12 -7.20874e-13 0)             (3.52205e-12 -5.09146e-13 0)             (3.39986e-12 -2.87796e-13 0)
          0.2             (1.13875e-11 1.36112e-12 0)             (1.14186e-11 1.87396e-13 0)             (1.14386e-11 -5.51232e-13 0)             (1.14201e-11 -1.04994e-12 0)             (1.13134e-11 -1.27875e-12 0)             (1.07139e-11 -1.22075e-12 0)             (1.02023e-11 -1.15651e-12 0)             (9.55643e-12 -1.15432e-12 0)             (8.79588e-12 -1.25551e-12 0)             (7.01809e-12 -1.85705e-12 0)             (6.04282e-12 -2.36398e-12 0)             (5.03562e-12 -2.96437e-12 0)             (2.99701e-12 -4.38467e-12 0)             (1.99201e-12 -5.12057e-12 0)             (1.01052e-12 -5.84485e-12 0)             (-8.53044e-13 -7.21561e-12 0)             (-1.72009e-12 -7.84298e-12 0)             (-2.53297e-12 -8.40006e-12 0)             (-3.9685e-12 -9.31144e-12 0)             (-4.58216e-12 -9.65419e-12 0)             (-5.57972e-12 -1.01296e-11 0)             (-5.95758e-12 -1.02508e-11 0)             (-6.25399e-12 -1.03124e-11 0)             (-6.61201e-12 -1.02606e-11 0)             (-6.67768e-12 -1.01849e-11 0)             (-6.59242e-12 -9.91519e-12 0)             (-6.45092e-12 -9.72602e-12 0)             (-5.99523e-12 -9.24034e-12 0)             (-5.33528e-12 -8.70364e-12 0)             (-4.94384e-12 -8.41087e-12 0)             (-4.05437e-12 -7.79175e-12 0)             (-3.56403e-12 -7.49936e-12 0)             (-2.52399e-12 -6.88106e-12 0)             (-1.42561e-12 -6.28637e-12 0)             (-8.65152e-13 -6.02163e-12 0)             (2.5614e-13 -5.53074e-12 0)             (1.36008e-12 -5.09706e-12 0)             (2.42572e-12 -4.80998e-12 0)             (2.93956e-12 -4.66389e-12 0)             (3.92709e-12 -4.48341e-12 0)             (4.86004e-12 -4.39417e-12 0)             (5.73359e-12 -4.38388e-12 0)             (6.55073e-12 -4.47362e-12 0)             (7.31389e-12 -4.60725e-12 0)             (8.02392e-12 -4.82529e-12 0)             (8.68644e-12 -5.10657e-12 0)             (9.30718e-12 -5.41857e-12 0)             (9.88679e-12 -5.78597e-12 0)             (1.04322e-11 -6.15687e-12 0)             (1.09526e-11 -6.57509e-12 0)             (1.14484e-11 -6.9609e-12 0)             (1.19225e-11 -7.38627e-12 0)             (1.23815e-11 -7.79769e-12 0)             (1.30476e-11 -8.41364e-12 0)             (1.34814e-11 -8.79443e-12 0)             (1.39129e-11 -9.14012e-12 0)             (1.45532e-11 -9.54974e-12 0)             (1.49778e-11 -9.80568e-12 0)             (1.56168e-11 -1.00529e-11 0)             (1.60434e-11 -1.01863e-11 0)             (1.66829e-11 -1.02197e-11 0)             (1.71093e-11 -1.02072e-11 0)             (1.77496e-11 -1.00582e-11 0)             (1.83801e-11 -9.82896e-12 0)             (1.89949e-11 -9.4734e-12 0)             (1.95888e-11 -9.01976e-12 0)             (2.01529e-11 -8.48084e-12 0)             (2.06829e-11 -7.84344e-12 0)             (2.11762e-11 -7.14142e-12 0)             (2.163e-11 -6.39971e-12 0)             (2.20307e-11 -5.6089e-12 0)             (2.23817e-11 -4.75994e-12 0)             (2.27676e-11 -3.5966e-12 0)             (2.29901e-11 -2.73872e-12 0)             (2.32026e-11 -1.53533e-12 0)             (2.3317e-11 -3.94625e-13 0)
          0.3             (-4.18008e-12 -4.01532e-13 0)             (-4.06097e-12 3.39983e-13 0)             (-3.93817e-12 6.46258e-13 0)             (-3.79375e-12 7.5812e-13 0)             (-3.59459e-12 7.8672e-13 0)             (-2.95628e-12 7.64897e-13 0)             (-2.51615e-12 8.6491e-13 0)             (-2.01031e-12 1.10082e-12 0)             (-1.45655e-12 1.45787e-12 0)             (-2.94502e-13 2.52649e-12 0)             (2.85991e-13 3.15118e-12 0)             (8.44627e-13 3.805e-12 0)             (1.87877e-12 4.92187e-12 0)             (2.34308e-12 5.36235e-12 0)             (2.76532e-12 5.69618e-12 0)             (3.46967e-12 6.02948e-12 0)             (3.74881e-12 6.00604e-12 0)             (3.98655e-12 5.89816e-12 0)             (4.32389e-12 5.41333e-12 0)             (4.43065e-12 5.05105e-12 0)             (4.52828e-12 4.15826e-12 0)             (4.52585e-12 3.62867e-12 0)             (4.49188e-12 3.0479e-12 0)             (4.34621e-12 1.80775e-12 0)             (4.24586e-12 1.14958e-12 0)             (4.01077e-12 -1.60687e-13 0)             (3.88439e-12 -8.24117e-13 0)             (3.64158e-12 -2.1675e-12 0)             (3.44837e-12 -3.47732e-12 0)             (3.37667e-12 -4.09074e-12 0)             (3.30406e-12 -5.24133e-12 0)             (3.3065e-12 -5.76768e-12 0)             (3.38825e-12 -6.69603e-12 0)             (3.57999e-12 -7.51307e-12 0)             (3.7166e-12 -7.85597e-12 0)             (4.07027e-12 -8.51821e-12 0)             (4.53657e-12 -9.07065e-12 0)             (5.10605e-12 -9.55302e-12 0)             (5.42514e-12 -9.72197e-12 0)             (6.12704e-12 -1.00108e-11 0)             (6.89418e-12 -1.01811e-11 0)             (7.70198e-12 -1.02652e-11 0)             (8.54035e-12 -1.02771e-11 0)             (9.39235e-12 -1.02087e-11 0)             (1.0244e-11 -1.00442e-11 0)             (1.10773e-11 -9.80497e-12 0)             (1.18799e-11 -9.4855e-12 0)             (1.26399e-11 -9.16398e-12 0)             (1.33435e-11 -8.78021e-12 0)             (1.39824e-11 -8.35952e-12 0)             (1.45487e-11 -7.94216e-12 0)             (1.50346e-11 -7.5306e-12 0)             (1.54394e-11 -7.08015e-12 0)             (1.58863e-11 -6.47437e-12 0)             (1.6078e-11 -6.06547e-12 0)             (1.61872e-11 -5.66966e-12 0)             (1.61975e-11 -5.09338e-12 0)             (1.6109e-11 -4.75055e-12 0)             (1.58436e-11 -4.23271e-12 0)             (1.55887e-11 -3.9226e-12 0)             (1.51025e-11 -3.46142e-12 0)             (1.47199e-11 -3.18115e-12 0)             (1.40889e-11 -2.78955e-12 0)             (1.33907e-11 -2.4234e-12 0)             (1.26436e-11 -2.10913e-12 0)             (1.18749e-11 -1.86271e-12 0)             (1.11004e-11 -1.59707e-12 0)             (1.03395e-11 -1.43426e-12 0)             (9.60942e-12 -1.26695e-12 0)             (8.9225e-12 -1.16439e-12 0)             (8.29318e-12 -1.06888e-12 0)             (7.72947e-12 -9.9913e-13 0)             (7.08711e-12 -9.21138e-13 0)             (6.69102e-12 -8.674e-13 0)             (6.27975e-12 -7.83632e-13 0)             (5.99709e-12 -6.23813e-13 0)
          0.4             (-5.51301e-12 -6.58644e-13 0)             (-5.49196e-12 -1.44337e-12 0)             (-5.38532e-12 -1.95479e-12 0)             (-5.22991e-12 -2.15244e-12 0)             (-5.04315e-12 -2.18411e-12 0)             (-4.61874e-12 -2.19898e-12 0)             (-4.38675e-12 -2.26945e-12 0)             (-4.13613e-12 -2.41553e-12 0)             (-3.86476e-12 -2.6269e-12 0)             (-3.24352e-12 -3.16711e-12 0)             (-2.88612e-12 -3.42705e-12 0)             (-2.49514e-12 -3.67943e-12 0)             (-1.6047e-12 -4.14841e-12 0)             (-1.10713e-12 -4.33242e-12 0)             (-5.76799e-13 -4.48448e-12 0)             (5.73687e-13 -4.66982e-12 0)             (1.18589e-12 -4.68247e-12 0)             (1.81545e-12 -4.60662e-12 0)             (3.10471e-12 -4.27488e-12 0)             (3.75052e-12 -4.06643e-12 0)             (5.02466e-12 -3.50909e-12 0)             (5.63608e-12 -3.20326e-12 0)             (6.2197e-12 -2.88746e-12 0)             (7.30083e-12 -2.30612e-12 0)             (7.78551e-12 -2.05327e-12 0)             (8.64053e-12 -1.63736e-12 0)             (9.00438e-12 -1.44253e-12 0)             (9.5917e-12 -1.10182e-12 0)             (9.98726e-12 -8.05963e-13 0)             (1.01103e-11 -6.8692e-13 0)             (1.02203e-11 -4.88977e-13 0)             (1.02072e-11 -4.43927e-13 0)             (1.00517e-11 -3.58383e-13 0)             (9.73994e-12 -3.89081e-13 0)             (9.53226e-12 -4.34167e-13 0)             (9.02336e-12 -5.74442e-13 0)             (8.41571e-12 -8.50374e-13 0)             (7.73291e-12 -1.11612e-12 0)             (7.36857e-12 -1.28765e-12 0)             (6.60584e-12 -1.63909e-12 0)             (5.81046e-12 -2.02037e-12 0)             (4.99569e-12 -2.4275e-12 0)             (4.17685e-12 -2.83372e-12 0)             (3.37461e-12 -3.22179e-12 0)             (2.59649e-12 -3.57823e-12 0)             (1.85891e-12 -3.90787e-12 0)             (1.17171e-12 -4.18554e-12 0)             (5.43882e-13 -4.44707e-12 0)             (-1.76676e-14 -4.63144e-12 0)             (-5.0537e-13 -4.77552e-12 0)             (-9.10892e-13 -4.86979e-12 0)             (-1.23305e-12 -4.91653e-12 0)             (-1.46797e-12 -4.91366e-12 0)             (-1.66166e-12 -4.84131e-12 0)             (-1.68908e-12 -4.73724e-12 0)             (-1.63907e-12 -4.56167e-12 0)             (-1.42774e-12 -4.20943e-12 0)             (-1.20698e-12 -3.94676e-12 0)             (-7.791e-13 -3.57116e-12 0)             (-4.38298e-13 -3.29455e-12 0)             (1.36677e-13 -2.86457e-12 0)             (5.53184e-13 -2.55898e-12 0)             (1.22779e-12 -2.08076e-12 0)             (1.91568e-12 -1.59741e-12 0)             (2.5953e-12 -1.15381e-12 0)             (3.2552e-12 -7.8033e-13 0)             (3.87615e-12 -4.73253e-13 0)             (4.44503e-12 -2.32331e-13 0)             (4.95085e-12 -2.66027e-15 0)             (5.389e-12 1.51936e-13 0)             (5.7532e-12 2.68525e-13 0)             (6.04386e-12 3.52778e-13 0)             (6.31192e-12 4.31162e-13 0)             (6.42862e-12 3.95493e-13 0)             (6.47237e-12 3.63634e-13 0)             (6.39539e-12 3.2653e-13 0)
          0.5             (1.4411e-12 1.13405e-14 0)             (1.35153e-12 -1.09502e-12 0)             (1.2523e-12 -1.73587e-12 0)             (1.15901e-12 -2.20313e-12 0)             (1.0931e-12 -2.50718e-12 0)             (1.04637e-12 -2.97342e-12 0)             (1.05188e-12 -3.18536e-12 0)             (1.06386e-12 -3.41197e-12 0)             (1.06999e-12 -3.66613e-12 0)             (1.02997e-12 -4.25132e-12 0)             (9.7837e-13 -4.58933e-12 0)             (9.01219e-13 -4.93017e-12 0)             (6.88219e-13 -5.69311e-12 0)             (5.60974e-13 -6.04535e-12 0)             (4.21771e-13 -6.38852e-12 0)             (1.34467e-13 -6.94981e-12 0)             (-8.08285e-15 -7.17158e-12 0)             (-1.4342e-13 -7.35907e-12 0)             (-3.90407e-13 -7.57044e-12 0)             (-4.97005e-13 -7.59087e-12 0)             (-6.71202e-13 -7.49603e-12 0)             (-7.4113e-13 -7.36646e-12 0)             (-7.93736e-13 -7.19533e-12 0)             (-8.58413e-13 -6.72701e-12 0)             (-8.70637e-13 -6.44181e-12 0)             (-8.51253e-13 -5.7383e-12 0)             (-8.20064e-13 -5.34979e-12 0)             (-7.28433e-13 -4.49899e-12 0)             (-5.96287e-13 -3.59236e-12 0)             (-5.19802e-13 -3.12264e-12 0)             (-3.44779e-13 -2.17623e-12 0)             (-2.51609e-13 -1.72504e-12 0)             (-5.92261e-14 -8.78687e-13 0)             (1.32922e-13 -9.12083e-14 0)             (2.26009e-13 2.72438e-13 0)             (4.01825e-13 8.75897e-13 0)             (5.57959e-13 1.40098e-12 0)             (6.86888e-13 1.75519e-12 0)             (7.36636e-13 1.89474e-12 0)             (8.0809e-13 2.03494e-12 0)             (8.29434e-13 2.08354e-12 0)             (7.99929e-13 2.01726e-12 0)             (7.15842e-13 1.87616e-12 0)             (5.91175e-13 1.68262e-12 0)             (4.24901e-13 1.43738e-12 0)             (2.26486e-13 1.09926e-12 0)             (4.85332e-15 7.26981e-13 0)             (-2.34648e-13 3.10538e-13 0)             (-4.88066e-13 -1.20894e-13 0)             (-7.49838e-13 -6.00805e-13 0)             (-1.01445e-12 -1.051e-12 0)             (-1.27708e-12 -1.51523e-12 0)             (-1.53349e-12 -1.97348e-12 0)             (-1.89673e-12 -2.64596e-12 0)             (-2.11604e-12 -3.05828e-12 0)             (-2.31514e-12 -3.43895e-12 0)             (-2.57063e-12 -3.96619e-12 0)             (-2.7109e-12 -4.23716e-12 0)             (-2.86544e-12 -4.61563e-12 0)             (-2.93207e-12 -4.77943e-12 0)             (-2.97543e-12 -4.95501e-12 0)             (-2.9677e-12 -5.00722e-12 0)             (-2.88441e-12 -5.00342e-12 0)             (-2.76344e-12 -4.89584e-12 0)             (-2.62125e-12 -4.75581e-12 0)             (-2.46406e-12 -4.51992e-12 0)             (-2.30336e-12 -4.26181e-12 0)             (-2.1452e-12 -3.90888e-12 0)             (-1.99843e-12 -3.55189e-12 0)             (-1.86943e-12 -3.1632e-12 0)             (-1.76274e-12 -2.70386e-12 0)             (-1.68322e-12 -2.26597e-12 0)             (-1.61914e-12 -1.72025e-12 0)             (-1.61011e-12 -1.29408e-12 0)             (-1.65235e-12 -6.91288e-13 0)             (-1.76584e-12 -1.06945e-13 0)
          0.6             (6.26391e-12 9.161e-13 0)             (6.35895e-12 -4.78902e-13 0)             (6.47033e-12 -1.10938e-12 0)             (6.57108e-12 -1.63519e-12 0)             (6.65487e-12 -1.99846e-12 0)             (6.72262e-12 -2.71108e-12 0)             (6.67687e-12 -3.13932e-12 0)             (6.56605e-12 -3.64084e-12 0)             (6.38589e-12 -4.20503e-12 0)             (5.81696e-12 -5.41022e-12 0)             (5.44018e-12 -6.04408e-12 0)             (5.01649e-12 -6.67577e-12 0)             (4.07066e-12 -7.88404e-12 0)             (3.57764e-12 -8.46187e-12 0)             (3.08532e-12 -8.99468e-12 0)             (2.14771e-12 -9.95843e-12 0)             (1.71828e-12 -1.03821e-11 0)             (1.32715e-12 -1.07869e-11 0)             (6.67644e-13 -1.14338e-11 0)             (4.02578e-13 -1.16541e-11 0)             (7.96851e-15 -1.19265e-11 0)             (-1.31119e-13 -1.19404e-11 0)             (-2.33247e-13 -1.1864e-11 0)             (-3.43193e-13 -1.14897e-11 0)             (-3.55342e-13 -1.12246e-11 0)             (-3.09713e-13 -1.04821e-11 0)             (-2.59251e-13 -1.00411e-11 0)             (-1.07638e-13 -9.06722e-12 0)             (9.51659e-14 -7.95048e-12 0)             (2.08356e-13 -7.3708e-12 0)             (4.57939e-13 -6.19796e-12 0)             (5.85972e-13 -5.60373e-12 0)             (8.45362e-13 -4.47029e-12 0)             (1.09629e-12 -3.39333e-12 0)             (1.21528e-12 -2.88799e-12 0)             (1.42559e-12 -1.97465e-12 0)             (1.59794e-12 -1.16971e-12 0)             (1.71925e-12 -5.0574e-13 0)             (1.76025e-12 -2.23872e-13 0)             (1.79275e-12 2.43352e-13 0)             (1.76494e-12 5.28755e-13 0)             (1.68101e-12 6.89304e-13 0)             (1.5463e-12 6.71515e-13 0)             (1.36548e-12 5.19172e-13 0)             (1.14444e-12 2.86323e-13 0)             (8.86529e-13 -8.67259e-14 0)             (5.99929e-13 -5.12714e-13 0)             (2.95454e-13 -9.96674e-13 0)             (-1.8396e-14 -1.52e-12 0)             (-3.36748e-13 -2.08816e-12 0)             (-6.54879e-13 -2.66611e-12 0)             (-9.60636e-13 -3.26276e-12 0)             (-1.25407e-12 -3.82395e-12 0)             (-1.64878e-12 -4.68572e-12 0)             (-1.87505e-12 -5.2574e-12 0)             (-2.06489e-12 -5.76865e-12 0)             (-2.27961e-12 -6.47316e-12 0)             (-2.37383e-12 -6.92626e-12 0)             (-2.43539e-12 -7.45997e-12 0)             (-2.42711e-12 -7.73893e-12 0)             (-2.34691e-12 -8.03669e-12 0)             (-2.25228e-12 -8.18918e-12 0)             (-2.03227e-12 -8.24656e-12 0)             (-1.78307e-12 -8.19569e-12 0)             (-1.52577e-12 -8.01668e-12 0)             (-1.26068e-12 -7.73633e-12 0)             (-1.00266e-12 -7.37168e-12 0)             (-7.60082e-13 -6.86656e-12 0)             (-5.40153e-13 -6.34346e-12 0)             (-3.52992e-13 -5.71475e-12 0)             (-2.05174e-13 -5.0929e-12 0)             (-9.67991e-14 -4.40612e-12 0)             (-2.44865e-14 -3.4843e-12 0)             (-3.08089e-14 -2.76541e-12 0)             (-1.15896e-13 -1.8074e-12 0)             (-2.99526e-13 -8.18462e-13 0)
          0.7             (7.85324e-12 9.76523e-13 0)             (7.65414e-12 -3.59142e-13 0)             (7.40978e-12 -1.0272e-12 0)             (7.14168e-12 -1.82657e-12 0)             (6.87643e-12 -2.46274e-12 0)             (6.37886e-12 -3.50546e-12 0)             (6.12346e-12 -3.96576e-12 0)             (5.84582e-12 -4.41419e-12 0)             (5.52854e-12 -4.85888e-12 0)             (4.73326e-12 -5.8161e-12 0)             (4.24166e-12 -6.32355e-12 0)             (3.68443e-12 -6.85468e-12 0)             (2.38286e-12 -7.95964e-12 0)             (1.65278e-12 -8.53133e-12 0)             (8.7626e-13 -9.07865e-12 0)             (-7.74126e-13 -1.00813e-11 0)             (-1.62637e-12 -1.05299e-11 0)             (-2.48307e-12 -1.09409e-11 0)             (-4.16775e-12 -1.16719e-11 0)             (-4.97578e-12 -1.19624e-11 0)             (-6.47762e-12 -1.23979e-11 0)             (-7.16163e-12 -1.25375e-11 0)             (-7.79375e-12 -1.26665e-11 0)             (-8.88866e-12 -1.28006e-11 0)             (-9.3472e-12 -1.28539e-11 0)             (-1.00759e-11 -1.28883e-11 0)             (-1.03414e-11 -1.2856e-11 0)             (-1.0681e-11 -1.27205e-11 0)             (-1.07671e-11 -1.24921e-11 0)             (-1.07235e-11 -1.23596e-11 0)             (-1.04633e-11 -1.20775e-11 0)             (-1.02559e-11 -1.19101e-11 0)             (-9.71077e-12 -1.15811e-11 0)             (-9.01247e-12 -1.1232e-11 0)             (-8.61608e-12 -1.10653e-11 0)             (-7.75239e-12 -1.07149e-11 0)             (-6.81978e-12 -1.0386e-11 0)             (-5.8413e-12 -1.00579e-11 0)             (-5.34634e-12 -9.90114e-12 0)             (-4.35899e-12 -9.60898e-12 0)             (-3.3927e-12 -9.35683e-12 0)             (-2.46625e-12 -9.14818e-12 0)             (-1.59282e-12 -8.99211e-12 0)             (-7.78709e-13 -8.93671e-12 0)             (-3.79578e-14 -8.89516e-12 0)             (6.27225e-13 -8.87856e-12 0)             (1.21363e-12 -8.88677e-12 0)             (1.72262e-12 -8.92069e-12 0)             (2.14881e-12 -8.99244e-12 0)             (2.50002e-12 -9.05913e-12 0)             (2.77407e-12 -9.1634e-12 0)             (2.97523e-12 -9.2429e-12 0)             (3.10949e-12 -9.37165e-12 0)             (3.20558e-12 -9.5331e-12 0)             (3.2055e-12 -9.63803e-12 0)             (3.16608e-12 -9.75133e-12 0)             (3.03429e-12 -9.85162e-12 0)             (2.90807e-12 -9.87986e-12 0)             (2.684e-12 -9.93844e-12 0)             (2.51385e-12 -9.90117e-12 0)             (2.23811e-12 -9.82967e-12 0)             (2.05119e-12 -9.73722e-12 0)             (1.79905e-12 -9.53534e-12 0)             (1.53539e-12 -9.30954e-12 0)             (1.25641e-12 -8.9732e-12 0)             (9.74329e-13 -8.59095e-12 0)             (6.92315e-13 -8.13639e-12 0)             (4.20941e-13 -7.63065e-12 0)             (1.60868e-13 -7.0452e-12 0)             (-8.23668e-14 -6.36899e-12 0)             (-3.13756e-13 -5.66697e-12 0)             (-5.2828e-13 -4.93711e-12 0)             (-7.99222e-13 -3.88388e-12 0)             (-9.95788e-13 -3.06885e-12 0)             (-1.25207e-12 -1.89991e-12 0)             (-1.5245e-12 -7.36601e-13 0)
          0.8             (7.86554e-12 7.3848e-13 0)             (7.8048e-12 5.70206e-13 0)             (7.69083e-12 7.33864e-13 0)             (7.46852e-12 5.39036e-13 0)             (7.1659e-12 3.75798e-13 0)             (6.40516e-12 -8.37016e-14 0)             (5.99215e-12 -3.0355e-13 0)             (5.58001e-12 -5.24746e-13 0)             (5.17651e-12 -7.54581e-13 0)             (4.40786e-12 -1.19805e-12 0)             (4.03948e-12 -1.41948e-12 0)             (3.66986e-12 -1.66098e-12 0)             (2.89423e-12 -2.15195e-12 0)             (2.47353e-12 -2.41753e-12 0)             (2.01889e-12 -2.68905e-12 0)             (1.02545e-12 -3.26608e-12 0)             (4.85136e-13 -3.58105e-12 0)             (-7.74525e-14 -3.89342e-12 0)             (-1.25713e-12 -4.62498e-12 0)             (-1.86035e-12 -5.00813e-12 0)             (-3.05463e-12 -5.83627e-12 0)             (-3.63591e-12 -6.23616e-12 0)             (-4.19207e-12 -6.62989e-12 0)             (-5.21749e-12 -7.46655e-12 0)             (-5.67799e-12 -7.92664e-12 0)             (-6.47548e-12 -8.84056e-12 0)             (-6.8091e-12 -9.29366e-12 0)             (-7.33896e-12 -1.02134e-11 0)             (-7.67158e-12 -1.10418e-11 0)             (-7.76753e-12 -1.14331e-11 0)             (-7.81452e-12 -1.21557e-11 0)             (-7.76898e-12 -1.24485e-11 0)             (-7.54754e-12 -1.30187e-11 0)             (-7.17096e-12 -1.34675e-11 0)             (-6.92879e-12 -1.36458e-11 0)             (-6.35367e-12 -1.3923e-11 0)             (-5.67343e-12 -1.41144e-11 0)             (-4.90748e-12 -1.4167e-11 0)             (-4.49651e-12 -1.41684e-11 0)             (-3.64032e-12 -1.40668e-11 0)             (-2.74443e-12 -1.39473e-11 0)             (-1.83515e-12 -1.37857e-11 0)             (-9.32981e-13 -1.35994e-11 0)             (-5.50213e-14 -1.33614e-11 0)             (7.79517e-13 -1.311e-11 0)             (1.55682e-12 -1.28126e-11 0)             (2.26366e-12 -1.24941e-11 0)             (2.89445e-12 -1.21557e-11 0)             (3.43668e-12 -1.17894e-11 0)             (3.8894e-12 -1.14243e-11 0)             (4.2461e-12 -1.10662e-11 0)             (4.51145e-12 -1.07877e-11 0)             (4.68672e-12 -1.04949e-11 0)             (4.78603e-12 -1.01305e-11 0)             (4.75035e-12 -9.88285e-12 0)             (4.64261e-12 -9.6808e-12 0)             (4.35334e-12 -9.39357e-12 0)             (4.0853e-12 -9.19999e-12 0)             (3.59864e-12 -8.91417e-12 0)             (3.22645e-12 -8.69185e-12 0)             (2.61153e-12 -8.42924e-12 0)             (2.17777e-12 -8.22557e-12 0)             (1.5452e-12 -7.9238e-12 0)             (8.80375e-13 -7.57161e-12 0)             (1.96504e-13 -7.23769e-12 0)             (-4.85753e-13 -6.83689e-12 0)             (-1.15415e-12 -6.47032e-12 0)             (-1.7996e-12 -6.02584e-12 0)             (-2.41308e-12 -5.51433e-12 0)             (-2.9892e-12 -5.04662e-12 0)             (-3.52622e-12 -4.51133e-12 0)             (-4.02111e-12 -4.00184e-12 0)             (-4.61357e-12 -3.20955e-12 0)             (-5.01705e-12 -2.60894e-12 0)             (-5.49159e-12 -1.77126e-12 0)             (-5.91816e-12 -8.75519e-13 0)