# Probe 0 (15.31 -0.61 0)
# Probe 1 (15.31 -0.6 0)
# Probe 2 (15.31 -0.59 0)
# Probe 3 (15.31 -0.58 0)
# Probe 4 (15.31 -0.57 0)
# Probe 5 (15.31 -0.56 0)
# Probe 6 (15.31 -0.55 0)
# Probe 7 (15.31 -0.54 0)
# Probe 8 (15.31 -0.53 0)
# Probe 9 (15.31 -0.52 0)
# Probe 10 (15.31 -0.51 0)
# Probe 11 (15.31 -0.5 0)
# Probe 12 (15.31 -0.49 0)
# Probe 13 (15.31 -0.48 0)
# Probe 14 (15.31 -0.47 0)
# Probe 15 (15.31 -0.46 0)
# Probe 16 (15.31 -0.45 0)
# Probe 17 (15.31 -0.44 0)
# Probe 18 (15.31 -0.43 0)
# Probe 19 (15.31 -0.42 0)
# Probe 20 (15.31 -0.41 0)
# Probe 21 (15.31 -0.4 0)
# Probe 22 (15.31 -0.39 0)
# Probe 23 (15.31 -0.38 0)
# Probe 24 (15.31 -0.37 0)
# Probe 25 (15.31 -0.36 0)
# Probe 26 (15.31 -0.35 0)
# Probe 27 (15.31 -0.34 0)
# Probe 28 (15.31 -0.33 0)
# Probe 29 (15.31 -0.32 0)
# Probe 30 (15.31 -0.31 0)
# Probe 31 (15.31 -0.3 0)
# Probe 32 (15.31 -0.29 0)
# Probe 33 (15.31 -0.28 0)
# Probe 34 (15.31 -0.27 0)
# Probe 35 (15.31 -0.26 0)
# Probe 36 (15.31 -0.25 0)
# Probe 37 (15.31 -0.24 0)
# Probe 38 (15.31 -0.23 0)
# Probe 39 (15.31 -0.22 0)
# Probe 40 (15.31 -0.21 0)
# Probe 41 (15.31 -0.2 0)
# Probe 42 (15.31 -0.19 0)
# Probe 43 (15.31 -0.18 0)
# Probe 44 (15.31 -0.17 0)
# Probe 45 (15.31 -0.16 0)
# Probe 46 (15.31 -0.15 0)
# Probe 47 (15.31 -0.14 0)
# Probe 48 (15.31 -0.13 0)
# Probe 49 (15.31 -0.12 0)
# Probe 50 (15.31 -0.11 0)
# Probe 51 (15.31 -0.1 0)
# Probe 52 (15.31 -0.09 0)
# Probe 53 (15.31 -0.08 0)
# Probe 54 (15.31 -0.07 0)
# Probe 55 (15.31 -0.06 0)
# Probe 56 (15.31 -0.05 0)
# Probe 57 (15.31 -0.04 0)
# Probe 58 (15.31 -0.03 0)
# Probe 59 (15.31 -0.02 0)
# Probe 60 (15.31 -0.01 0)
# Probe 61 (15.31 0 0)
# Probe 62 (15.31 0.01 0)
# Probe 63 (15.31 0.02 0)
# Probe 64 (15.31 0.03 0)
# Probe 65 (15.31 0.04 0)
# Probe 66 (15.31 0.05 0)
# Probe 67 (15.31 0.06 0)
# Probe 68 (15.31 0.07 0)
# Probe 69 (15.31 0.08 0)
# Probe 70 (15.31 0.09 0)
# Probe 71 (15.31 0.1 0)
# Probe 72 (15.31 0.11 0)
# Probe 73 (15.31 0.12 0)
# Probe 74 (15.31 0.13 0)
# Probe 75 (15.31 0.14 0)
#       Probe             0             1             2             3             4             5             6             7             8             9            10            11            12            13            14            15            16            17            18            19            20            21            22            23            24            25            26            27            28            29            30            31            32            33            34            35            36            37            38            39            40            41            42            43            44            45            46            47            48            49            50            51            52            53            54            55            56            57            58            59            60            61            62            63            64            65            66            67            68            69            70            71            72            73            74            75
#        Time
          0.1             (-3.43724e-11 -9.95231e-13 0)             (-3.53662e-11 -2.21806e-12 0)             (-3.56918e-11 -3.18388e-12 0)             (-3.56918e-11 -3.18388e-12 0)             (-3.58345e-11 -4.29912e-12 0)             (-3.5685e-11 -4.85677e-12 0)             (-3.50533e-11 -4.91925e-12 0)             (-3.3931e-11 -4.66997e-12 0)             (-3.3931e-11 -4.66997e-12 0)             (-3.24422e-11 -4.44979e-12 0)             (-3.07748e-11 -4.26305e-12 0)             (-2.90916e-11 -3.97625e-12 0)             (-2.7499e-11 -3.5226e-12 0)             (-2.60377e-11 -2.93552e-12 0)             (-2.60377e-11 -2.93552e-12 0)             (-2.4702e-11 -2.27624e-12 0)             (-2.34524e-11 -1.6179e-12 0)             (-2.22446e-11 -1.01042e-12 0)             (-2.10338e-11 -5.02759e-13 0)             (-1.97877e-11 -1.07119e-13 0)             (-1.84892e-11 1.77348e-13 0)             (-1.71334e-11 3.47114e-13 0)             (-1.57239e-11 4.25659e-13 0)             (-1.42738e-11 4.24244e-13 0)             (-1.28025e-11 3.82205e-13 0)             (-1.1324e-11 3.24042e-13 0)             (-9.85731e-12 2.21164e-13 0)             (-8.41802e-12 8.3382e-14 0)             (-7.02254e-12 -7.52445e-14 0)             (-5.69226e-12 -2.65742e-13 0)             (-3.24892e-12 -6.88931e-13 0)             (-2.14438e-12 -9.54724e-13 0)             (-1.11769e-12 -1.24256e-12 0)             (-1.66209e-13 -1.52501e-12 0)             (7.04859e-13 -1.82131e-12 0)             (1.49451e-12 -2.14914e-12 0)             (2.84322e-12 -2.93148e-12 0)             (3.40238e-12 -3.36956e-12 0)             (3.89334e-12 -3.80037e-12 0)             (4.69025e-12 -4.71766e-12 0)             (5.0105e-12 -5.19837e-12 0)             (5.52456e-12 -6.19727e-12 0)             (5.72691e-12 -6.71364e-12 0)             (5.90258e-12 -7.232e-12 0)             (6.16572e-12 -8.28675e-12 0)             (6.3442e-12 -9.30499e-12 0)             (6.40604e-12 -9.82296e-12 0)             (6.48461e-12 -1.07713e-11 0)             (6.50898e-12 -1.12071e-11 0)             (6.52966e-12 -1.20507e-11 0)             (6.5305e-12 -1.28043e-11 0)             (6.51984e-12 -1.35018e-11 0)             (6.50716e-12 -1.41466e-11 0)             (6.49942e-12 -1.47071e-11 0)             (6.50133e-12 -1.51907e-11 0)             (6.5156e-12 -1.56027e-11 0)             (6.53727e-12 -1.58976e-11 0)             (6.56334e-12 -1.60905e-11 0)             (6.59418e-12 -1.62224e-11 0)             (6.65868e-12 -1.62064e-11 0)             (6.71673e-12 -1.61115e-11 0)             (6.82049e-12 -1.58242e-11 0)             (6.94808e-12 -1.53613e-11 0)             (7.04074e-12 -1.50132e-11 0)             (7.19045e-12 -1.43537e-11 0)             (7.40053e-12 -1.33907e-11 0)             (7.55999e-12 -1.25971e-11 0)             (7.71346e-12 -1.17555e-11 0)             (7.91051e-12 -1.05833e-11 0)             (8.08841e-12 -9.38671e-12 0)             (8.24478e-12 -8.17574e-12 0)             (8.4043e-12 -6.69188e-12 0)             (8.50565e-12 -5.50782e-12 0)             (8.61701e-12 -3.82139e-12 0)             (8.67555e-12 -2.43063e-12 0)             (8.71858e-12 -7.53139e-13 0)
          0.2             (1.11669e-11 1.11538e-12 0)             (1.12756e-11 1.33704e-12 0)             (1.13456e-11 -5.1614e-13 0)             (1.13456e-11 -5.1614e-13 0)             (1.16467e-11 -1.70819e-12 0)             (1.19501e-11 -1.80367e-12 0)             (1.21379e-11 -1.50366e-12 0)             (1.21613e-11 -1.60738e-12 0)             (1.21613e-11 -1.60738e-12 0)             (1.20036e-11 -2.60711e-12 0)             (1.16326e-11 -4.36856e-12 0)             (1.10354e-11 -6.56393e-12 0)             (1.02179e-11 -8.86176e-12 0)             (9.20809e-12 -1.09722e-11 0)             (9.20809e-12 -1.09722e-11 0)             (8.05426e-12 -1.27516e-11 0)             (6.81622e-12 -1.41653e-11 0)             (5.56119e-12 -1.52239e-11 0)             (4.34232e-12 -1.59796e-11 0)             (3.20444e-12 -1.64823e-11 0)             (2.17851e-12 -1.6843e-11 0)             (1.28791e-12 -1.71604e-11 0)             (5.33897e-13 -1.7466e-11 0)             (-7.77625e-14 -1.77863e-11 0)             (-5.62672e-13 -1.81476e-11 0)             (-9.36581e-13 -1.85404e-11 0)             (-1.2189e-12 -1.89243e-11 0)             (-1.43019e-12 -1.92958e-11 0)             (-1.58907e-12 -1.96277e-11 0)             (-1.7098e-12 -1.99009e-11 0)             (-1.86705e-12 -2.0249e-11 0)             (-1.91352e-12 -2.0302e-11 0)             (-1.9424e-12 -2.02739e-11 0)             (-1.95082e-12 -2.01566e-11 0)             (-1.94615e-12 -1.99697e-11 0)             (-1.92552e-12 -1.96968e-11 0)             (-1.84574e-12 -1.89386e-11 0)             (-1.78519e-12 -1.84518e-11 0)             (-1.71063e-12 -1.79194e-11 0)             (-1.52839e-12 -1.67151e-11 0)             (-1.42545e-12 -1.60752e-11 0)             (-1.1905e-12 -1.46909e-11 0)             (-1.06779e-12 -1.39674e-11 0)             (-9.42319e-13 -1.32376e-11 0)             (-6.82028e-13 -1.1728e-11 0)             (-4.26406e-13 -1.02171e-11 0)             (-3.01605e-13 -9.46604e-12 0)             (-7.00838e-14 -7.97199e-12 0)             (3.71408e-14 -7.24493e-12 0)             (2.206e-13 -5.80098e-12 0)             (3.64555e-13 -4.4566e-12 0)             (4.66033e-13 -3.16442e-12 0)             (5.18598e-13 -1.98637e-12 0)             (5.2736e-13 -8.98417e-13 0)             (4.92297e-13 9.53441e-14 0)             (4.18093e-13 1.01395e-12 0)             (3.11577e-13 1.80844e-12 0)             (1.72805e-13 2.54074e-12 0)             (1.46625e-14 3.19234e-12 0)             (-2.55791e-13 3.99317e-12 0)             (-4.56122e-13 4.39794e-12 0)             (-7.7441e-13 4.92438e-12 0)             (-1.10806e-12 5.3168e-12 0)             (-1.33698e-12 5.43813e-12 0)             (-1.68231e-12 5.56445e-12 0)             (-2.13616e-12 5.6076e-12 0)             (-2.46321e-12 5.50094e-12 0)             (-2.77578e-12 5.31619e-12 0)             (-3.16254e-12 4.95579e-12 0)             (-3.51189e-12 4.49977e-12 0)             (-3.8194e-12 3.9865e-12 0)             (-4.14269e-12 3.30462e-12 0)             (-4.35894e-12 2.79933e-12 0)             (-4.60812e-12 1.94889e-12 0)             (-4.76188e-12 1.26386e-12 0)             (-4.90824e-12 4.45057e-13 0)
          0.3             (1.78908e-12 -5.97408e-13 0)             (1.58077e-12 -2.64845e-12 0)             (1.26796e-12 -4.22811e-12 0)             (1.26796e-12 -4.22811e-12 0)             (9.28622e-13 -5.21648e-12 0)             (6.73631e-13 -7.32292e-12 0)             (4.74801e-13 -9.38415e-12 0)             (3.54359e-13 -1.04781e-11 0)             (3.54359e-13 -1.04781e-11 0)             (3.84687e-13 -1.06293e-11 0)             (6.55707e-13 -1.021e-11 0)             (1.21485e-12 -9.69158e-12 0)             (2.0078e-12 -9.43289e-12 0)             (2.93682e-12 -9.53283e-12 0)             (2.93682e-12 -9.53283e-12 0)             (3.87263e-12 -9.8768e-12 0)             (4.71106e-12 -1.04099e-11 0)             (5.39984e-12 -1.10908e-11 0)             (5.91212e-12 -1.17823e-11 0)             (6.24995e-12 -1.23901e-11 0)             (6.42464e-12 -1.29008e-11 0)             (6.45538e-12 -1.33249e-11 0)             (6.36507e-12 -1.3638e-11 0)             (6.1846e-12 -1.38675e-11 0)             (5.93714e-12 -1.40373e-11 0)             (5.64345e-12 -1.41644e-11 0)             (5.32243e-12 -1.42757e-11 0)             (4.98974e-12 -1.43742e-11 0)             (4.65427e-12 -1.44634e-11 0)             (4.321e-12 -1.45575e-11 0)             (3.67932e-12 -1.46888e-11 0)             (3.37475e-12 -1.47426e-11 0)             (3.08229e-12 -1.47937e-11 0)             (2.79521e-12 -1.48302e-11 0)             (2.51654e-12 -1.48535e-11 0)             (2.24452e-12 -1.48763e-11 0)             (1.71679e-12 -1.4894e-11 0)             (1.46419e-12 -1.4875e-11 0)             (1.21176e-12 -1.48579e-11 0)             (7.11195e-13 -1.47313e-11 0)             (4.60155e-13 -1.46704e-11 0)             (-3.02135e-14 -1.4467e-11 0)             (-2.66305e-13 -1.43765e-11 0)             (-4.95875e-13 -1.42678e-11 0)             (-9.22564e-13 -1.40125e-11 0)             (-1.29456e-12 -1.37504e-11 0)             (-1.45614e-12 -1.36146e-11 0)             (-1.73278e-12 -1.33432e-11 0)             (-1.84421e-12 -1.31891e-11 0)             (-2.0184e-12 -1.2877e-11 0)             (-2.11938e-12 -1.25671e-11 0)             (-2.15558e-12 -1.22353e-11 0)             (-2.13176e-12 -1.18557e-11 0)             (-2.06212e-12 -1.14379e-11 0)             (-1.94712e-12 -1.09891e-11 0)             (-1.80091e-12 -1.04591e-11 0)             (-1.62218e-12 -9.9762e-12 0)             (-1.41515e-12 -9.51659e-12 0)             (-1.17984e-12 -9.04312e-12 0)             (-7.8428e-13 -8.37519e-12 0)             (-4.99852e-13 -7.9417e-12 0)             (-5.0548e-14 -7.32688e-12 0)             (4.07355e-13 -6.75608e-12 0)             (7.1311e-13 -6.40034e-12 0)             (1.15873e-12 -5.84115e-12 0)             (1.71755e-12 -5.18895e-12 0)             (2.10735e-12 -4.71401e-12 0)             (2.46918e-12 -4.25809e-12 0)             (2.90278e-12 -3.67587e-12 0)             (3.27984e-12 -3.16008e-12 0)             (3.5979e-12 -2.6511e-12 0)             (3.92626e-12 -2.11736e-12 0)             (4.12846e-12 -1.62924e-12 0)             (4.35202e-12 -1.07933e-12 0)             (4.47313e-12 -6.31166e-13 0)             (4.56327e-12 -8.61558e-14 0)
          0.4             (4.65223e-12 -5.30531e-13 0)             (3.95402e-12 -1.59726e-12 0)             (3.78692e-12 -2.22635e-12 0)             (3.78692e-12 -2.22635e-12 0)             (3.86253e-12 -2.83007e-12 0)             (3.62379e-12 -3.71588e-12 0)             (3.02573e-12 -4.56594e-12 0)             (2.34158e-12 -5.73813e-12 0)             (2.34158e-12 -5.73813e-12 0)             (1.85384e-12 -7.27019e-12 0)             (1.67142e-12 -8.86803e-12 0)             (1.77418e-12 -1.0172e-11 0)             (2.04379e-12 -1.09719e-11 0)             (2.36478e-12 -1.12563e-11 0)             (2.36478e-12 -1.12563e-11 0)             (2.63004e-12 -1.10586e-11 0)             (2.78594e-12 -1.0463e-11 0)             (2.82669e-12 -9.66808e-12 0)             (2.76921e-12 -8.85543e-12 0)             (2.63622e-12 -8.15378e-12 0)             (2.45525e-12 -7.65163e-12 0)             (2.25355e-12 -7.35951e-12 0)             (2.04217e-12 -7.28996e-12 0)             (1.83002e-12 -7.42568e-12 0)             (1.61942e-12 -7.69326e-12 0)             (1.40477e-12 -8.0492e-12 0)             (1.17934e-12 -8.46312e-12 0)             (9.43085e-13 -8.89913e-12 0)             (6.92058e-13 -9.31663e-12 0)             (4.24862e-13 -9.71844e-12 0)             (-1.44716e-13 -1.04075e-11 0)             (-4.46587e-13 -1.06972e-11 0)             (-7.59718e-13 -1.09461e-11 0)             (-1.08025e-12 -1.11498e-11 0)             (-1.40478e-12 -1.13287e-11 0)             (-1.72882e-12 -1.14802e-11 0)             (-2.37806e-12 -1.17301e-11 0)             (-2.69847e-12 -1.18625e-11 0)             (-3.01307e-12 -1.19735e-11 0)             (-3.62368e-12 -1.22045e-11 0)             (-3.91746e-12 -1.23139e-11 0)             (-4.47661e-12 -1.256e-11 0)             (-4.7379e-12 -1.26762e-11 0)             (-4.98431e-12 -1.28009e-11 0)             (-5.43395e-12 -1.3065e-11 0)             (-5.82159e-12 -1.33454e-11 0)             (-5.98914e-12 -1.34848e-11 0)             (-6.27562e-12 -1.37552e-11 0)             (-6.39507e-12 -1.389e-11 0)             (-6.59059e-12 -1.41422e-11 0)             (-6.72479e-12 -1.43507e-11 0)             (-6.80555e-12 -1.45328e-11 0)             (-6.83647e-12 -1.46562e-11 0)             (-6.82662e-12 -1.47173e-11 0)             (-6.77196e-12 -1.47147e-11 0)             (-6.67793e-12 -1.46724e-11 0)             (-6.54141e-12 -1.4541e-11 0)             (-6.37453e-12 -1.43799e-11 0)             (-6.18035e-12 -1.41509e-11 0)             (-5.85341e-12 -1.37139e-11 0)             (-5.6179e-12 -1.33583e-11 0)             (-5.24906e-12 -1.27999e-11 0)             (-4.87003e-12 -1.21609e-11 0)             (-4.62177e-12 -1.17062e-11 0)             (-4.26334e-12 -1.09936e-11 0)             (-3.81056e-12 -1.00546e-11 0)             (-3.50237e-12 -9.30369e-12 0)             (-3.21663e-12 -8.61645e-12 0)             (-2.87787e-12 -7.70508e-12 0)             (-2.58596e-12 -6.80623e-12 0)             (-2.34429e-12 -5.98065e-12 0)             (-2.10188e-12 -4.96996e-12 0)             (-1.95676e-12 -4.19051e-12 0)             (-1.8035e-12 -3.09982e-12 0)             (-1.72845e-12 -2.19065e-12 0)             (-1.68762e-12 -9.92008e-13 0)
          0.5             (7.39996e-12 -6.01282e-13 0)             (6.0102e-12 -1.88935e-12 0)             (5.97009e-12 -2.73652e-12 0)             (5.97009e-12 -2.73652e-12 0)             (6.12316e-12 -3.41203e-12 0)             (5.6428e-12 -4.42479e-12 0)             (4.6214e-12 -5.74398e-12 0)             (3.59727e-12 -7.75539e-12 0)             (3.59727e-12 -7.75539e-12 0)             (2.92723e-12 -1.02285e-11 0)             (2.68429e-12 -1.25334e-11 0)             (2.77277e-12 -1.41305e-11 0)             (2.99571e-12 -1.48065e-11 0)             (3.19884e-12 -1.45883e-11 0)             (3.19884e-12 -1.45883e-11 0)             (3.27327e-12 -1.36796e-11 0)             (3.18622e-12 -1.23956e-11 0)             (2.96192e-12 -1.10458e-11 0)             (2.6378e-12 -9.86573e-12 0)             (2.26637e-12 -8.99769e-12 0)             (1.88591e-12 -8.49812e-12 0)             (1.52046e-12 -8.35228e-12 0)             (1.18194e-12 -8.51562e-12 0)             (8.78417e-13 -8.91334e-12 0)             (6.03869e-13 -9.46498e-12 0)             (3.52236e-13 -1.0113e-11 0)             (1.06491e-13 -1.07844e-11 0)             (-1.40448e-13 -1.14076e-11 0)             (-4.05784e-13 -1.1965e-11 0)             (-6.88846e-13 -1.24524e-11 0)             (-1.31469e-12 -1.31434e-11 0)             (-1.65439e-12 -1.33591e-11 0)             (-2.01606e-12 -1.34935e-11 0)             (-2.38911e-12 -1.35594e-11 0)             (-2.77196e-12 -1.3566e-11 0)             (-3.15978e-12 -1.35418e-11 0)             (-3.9354e-12 -1.34505e-11 0)             (-4.31406e-12 -1.34036e-11 0)             (-4.68564e-12 -1.33778e-11 0)             (-5.40257e-12 -1.33256e-11 0)             (-5.74316e-12 -1.33131e-11 0)             (-6.37684e-12 -1.33497e-11 0)             (-6.66701e-12 -1.33709e-11 0)             (-6.93935e-12 -1.34169e-11 0)             (-7.42625e-12 -1.35278e-11 0)             (-7.82864e-12 -1.36818e-11 0)             (-8.00034e-12 -1.37542e-11 0)             (-8.28372e-12 -1.39135e-11 0)             (-8.39617e-12 -1.39958e-11 0)             (-8.56537e-12 -1.41533e-11 0)             (-8.66841e-12 -1.42883e-11 0)             (-8.70333e-12 -1.44099e-11 0)             (-8.67989e-12 -1.44735e-11 0)             (-8.60666e-12 -1.45429e-11 0)             (-8.48488e-12 -1.45271e-11 0)             (-8.31873e-12 -1.44692e-11 0)             (-8.11531e-12 -1.43823e-11 0)             (-7.87899e-12 -1.42414e-11 0)             (-7.61217e-12 -1.40333e-11 0)             (-7.16309e-12 -1.36328e-11 0)             (-6.84049e-12 -1.3325e-11 0)             (-6.32433e-12 -1.27856e-11 0)             (-5.78936e-12 -1.21676e-11 0)             (-5.43316e-12 -1.17628e-11 0)             (-4.91415e-12 -1.11169e-11 0)             (-4.25808e-12 -1.02298e-11 0)             (-3.80438e-12 -9.54748e-12 0)             (-3.39037e-12 -8.89228e-12 0)             (-2.89254e-12 -8.01773e-12 0)             (-2.46731e-12 -7.11473e-12 0)             (-2.10922e-12 -6.28414e-12 0)             (-1.75118e-12 -5.24501e-12 0)             (-1.54066e-12 -4.41302e-12 0)             (-1.32242e-12 -3.23731e-12 0)             (-1.2221e-12 -2.30494e-12 0)             (-1.17955e-12 -1.0946e-12 0)
          0.6             (1.0983e-11 2.26771e-12 0)             (1.02861e-11 1.30627e-12 0)             (1.00967e-11 -1.94911e-12 0)             (1.00967e-11 -1.94911e-12 0)             (9.6639e-12 -1.1507e-12 0)             (9.17974e-12 3.74427e-13 0)             (8.53521e-12 7.36397e-13 0)             (7.59717e-12 -5.72713e-13 0)             (7.59717e-12 -5.72713e-13 0)             (6.27422e-12 -2.48209e-12 0)             (4.61409e-12 -4.09164e-12 0)             (2.79409e-12 -5.04026e-12 0)             (1.01684e-12 -5.30692e-12 0)             (-5.43683e-13 -5.17773e-12 0)             (-5.43683e-13 -5.17773e-12 0)             (-1.77292e-12 -4.93954e-12 0)             (-2.63806e-12 -4.74364e-12 0)             (-3.16903e-12 -4.67589e-12 0)             (-3.43911e-12 -4.75121e-12 0)             (-3.54374e-12 -4.94833e-12 0)             (-3.58679e-12 -5.22452e-12 0)             (-3.6437e-12 -5.5138e-12 0)             (-3.76687e-12 -5.78784e-12 0)             (-3.97976e-12 -6.0654e-12 0)             (-4.2913e-12 -6.32864e-12 0)             (-4.69932e-12 -6.56361e-12 0)             (-5.18584e-12 -6.76835e-12 0)             (-5.73525e-12 -6.927e-12 0)             (-6.32642e-12 -7.05171e-12 0)             (-6.93555e-12 -7.16983e-12 0)             (-8.12184e-12 -7.35121e-12 0)             (-8.66713e-12 -7.45447e-12 0)             (-9.16899e-12 -7.54158e-12 0)             (-9.61948e-12 -7.6231e-12 0)             (-1.00148e-11 -7.72394e-12 0)             (-1.03506e-11 -7.83786e-12 0)             (-1.08559e-11 -8.12477e-12 0)             (-1.10262e-11 -8.30058e-12 0)             (-1.11495e-11 -8.47805e-12 0)             (-1.12605e-11 -8.88495e-12 0)             (-1.126e-11 -9.10442e-12 0)             (-1.11625e-11 -9.56746e-12 0)             (-1.10761e-11 -9.817e-12 0)             (-1.09678e-11 -1.00581e-11 0)             (-1.07011e-11 -1.05443e-11 0)             (-1.03785e-11 -1.10452e-11 0)             (-1.02045e-11 -1.128e-11 0)             (-9.83718e-12 -1.17581e-11 0)             (-9.64674e-12 -1.19837e-11 0)             (-9.26055e-12 -1.2395e-11 0)             (-8.87056e-12 -1.2765e-11 0)             (-8.47939e-12 -1.31062e-11 0)             (-8.09484e-12 -1.33814e-11 0)             (-7.71727e-12 -1.35954e-11 0)             (-7.34352e-12 -1.3753e-11 0)             (-6.97957e-12 -1.38433e-11 0)             (-6.61885e-12 -1.38851e-11 0)             (-6.26668e-12 -1.38709e-11 0)             (-5.92303e-12 -1.38196e-11 0)             (-5.42146e-12 -1.36282e-11 0)             (-5.09818e-12 -1.34429e-11 0)             (-4.62105e-12 -1.3102e-11 0)             (-4.15733e-12 -1.27016e-11 0)             (-3.8694e-12 -1.2361e-11 0)             (-3.46661e-12 -1.1856e-11 0)             (-2.98867e-12 -1.10818e-11 0)             (-2.67717e-12 -1.04183e-11 0)             (-2.40001e-12 -9.75898e-12 0)             (-2.08515e-12 -8.86193e-12 0)             (-1.82952e-12 -7.93222e-12 0)             (-1.62591e-12 -6.9721e-12 0)             (-1.43747e-12 -5.79149e-12 0)             (-1.33763e-12 -4.86306e-12 0)             (-1.25337e-12 -3.54478e-12 0)             (-1.23973e-12 -2.48502e-12 0)             (-1.27264e-12 -1.09142e-12 0)
          0.7             (1.49148e-11 3.07772e-12 0)             (1.42117e-11 1.56215e-12 0)             (1.38684e-11 -2.65128e-12 0)             (1.38684e-11 -2.65128e-12 0)             (1.32991e-11 -1.26033e-12 0)             (1.26894e-11 5.31843e-13 0)             (1.18502e-11 7.25603e-13 0)             (1.06241e-11 -1.09056e-12 0)             (1.06241e-11 -1.09056e-12 0)             (8.96387e-12 -3.46597e-12 0)             (6.98005e-12 -5.38096e-12 0)             (4.89887e-12 -6.41314e-12 0)             (2.95934e-12 -6.6303e-12 0)             (1.34652e-12 -6.39209e-12 0)             (1.34652e-12 -6.39209e-12 0)             (1.53281e-13 -6.02077e-12 0)             (-6.20317e-13 -5.74124e-12 0)             (-1.04553e-12 -5.67008e-12 0)             (-1.23603e-12 -5.83036e-12 0)             (-1.31377e-12 -6.1587e-12 0)             (-1.39159e-12 -6.59192e-12 0)             (-1.54777e-12 -7.04684e-12 0)             (-1.83258e-12 -7.47414e-12 0)             (-2.2642e-12 -7.85611e-12 0)             (-2.83896e-12 -8.1601e-12 0)             (-3.54298e-12 -8.39469e-12 0)             (-4.34939e-12 -8.56794e-12 0)             (-5.22365e-12 -8.70646e-12 0)             (-6.13804e-12 -8.81487e-12 0)             (-7.06379e-12 -8.89699e-12 0)             (-8.82808e-12 -9.03263e-12 0)             (-9.62587e-12 -9.09965e-12 0)             (-1.03559e-11 -9.1573e-12 0)             (-1.10106e-11 -9.19952e-12 0)             (-1.15806e-11 -9.25336e-12 0)             (-1.20712e-11 -9.30703e-12 0)             (-1.28112e-11 -9.46413e-12 0)             (-1.3064e-11 -9.56683e-12 0)             (-1.32492e-11 -9.67579e-12 0)             (-1.34333e-11 -9.92971e-12 0)             (-1.3445e-11 -1.00735e-11 0)             (-1.33298e-11 -1.03459e-11 0)             (-1.32183e-11 -1.05069e-11 0)             (-1.30723e-11 -1.0662e-11 0)             (-1.27093e-11 -1.09601e-11 0)             (-1.22662e-11 -1.12676e-11 0)             (-1.20219e-11 -1.14118e-11 0)             (-1.15029e-11 -1.16891e-11 0)             (-1.123e-11 -1.1814e-11 0)             (-1.06737e-11 -1.20572e-11 0)             (-1.01034e-11 -1.22575e-11 0)             (-9.52877e-12 -1.24009e-11 0)             (-8.9538e-12 -1.24941e-11 0)             (-8.38325e-12 -1.2562e-11 0)             (-7.81832e-12 -1.2527e-11 0)             (-7.26066e-12 -1.25086e-11 0)             (-6.71573e-12 -1.24345e-11 0)             (-6.18425e-12 -1.23247e-11 0)             (-5.66735e-12 -1.22151e-11 0)             (-4.91947e-12 -1.19414e-11 0)             (-4.44625e-12 -1.17346e-11 0)             (-3.74675e-12 -1.13585e-11 0)             (-3.06846e-12 -1.09582e-11 0)             (-2.64372e-12 -1.06869e-11 0)             (-2.05504e-12 -1.01684e-11 0)             (-1.35417e-12 -9.50539e-12 0)             (-8.95386e-13 -8.98463e-12 0)             (-4.8989e-13 -8.37503e-12 0)             (-2.94741e-14 -7.63685e-12 0)             (3.43733e-13 -6.80118e-12 0)             (6.43738e-13 -5.97126e-12 0)             (9.19534e-13 -4.99416e-12 0)             (1.06837e-12 -4.21207e-12 0)             (1.20145e-12 -3.064e-12 0)             (1.24078e-12 -2.14588e-12 0)             (1.22051e-12 -1.0102e-12 0)
          0.8             (1.74336e-11 3.31896e-12 0)             (1.69418e-11 1.3497e-12 0)             (1.66653e-11 -3.11504e-12 0)             (1.66653e-11 -3.11504e-12 0)             (1.62258e-11 -1.11493e-12 0)             (1.57348e-11 8.73527e-13 0)             (1.49517e-11 9.16199e-13 0)             (1.37295e-11 -1.24687e-12 0)             (1.37295e-11 -1.24687e-12 0)             (1.20752e-11 -3.90447e-12 0)             (1.01299e-11 -5.96345e-12 0)             (8.15021e-12 -6.98988e-12 0)             (6.38351e-12 -7.09739e-12 0)             (5.00633e-12 -6.70093e-12 0)             (5.00633e-12 -6.70093e-12 0)             (4.07832e-12 -6.16304e-12 0)             (3.56762e-12 -5.74507e-12 0)             (3.37967e-12 -5.5984e-12 0)             (3.37645e-12 -5.74363e-12 0)             (3.41796e-12 -6.12287e-12 0)             (3.38435e-12 -6.64931e-12 0)             (3.19503e-12 -7.23963e-12 0)             (2.8056e-12 -7.82091e-12 0)             (2.20197e-12 -8.33419e-12 0)             (1.39632e-12 -8.77712e-12 0)             (4.19001e-13 -9.12501e-12 0)             (-6.87514e-13 -9.39201e-12 0)             (-1.87562e-12 -9.59166e-12 0)             (-3.10471e-12 -9.7413e-12 0)             (-4.33823e-12 -9.89147e-12 0)             (-6.68417e-12 -1.01966e-11 0)             (-7.74988e-12 -1.03444e-11 0)             (-8.72886e-12 -1.04809e-11 0)             (-9.61451e-12 -1.06142e-11 0)             (-1.04002e-11 -1.07456e-11 0)             (-1.10878e-11 -1.08549e-11 0)             (-1.21681e-11 -1.11357e-11 0)             (-1.25724e-11 -1.12699e-11 0)             (-1.28903e-11 -1.14199e-11 0)             (-1.32989e-11 -1.17141e-11 0)             (-1.34004e-11 -1.18649e-11 0)             (-1.34373e-11 -1.21561e-11 0)             (-1.33828e-11 -1.22978e-11 0)             (-1.32876e-11 -1.24499e-11 0)             (-1.29942e-11 -1.27016e-11 0)             (-1.25877e-11 -1.29336e-11 0)             (-1.23516e-11 -1.30394e-11 0)             (-1.18301e-11 -1.32408e-11 0)             (-1.1548e-11 -1.33093e-11 0)             (-1.09545e-11 -1.34435e-11 0)             (-1.03315e-11 -1.35321e-11 0)             (-9.68459e-12 -1.35217e-11 0)             (-9.02482e-12 -1.35046e-11 0)             (-8.36171e-12 -1.34073e-11 0)             (-7.69332e-12 -1.32842e-11 0)             (-7.03016e-12 -1.31331e-11 0)             (-6.38039e-12 -1.29624e-11 0)             (-5.74777e-12 -1.27622e-11 0)             (-5.12898e-12 -1.25499e-11 0)             (-4.23637e-12 -1.21647e-11 0)             (-3.67071e-12 -1.18657e-11 0)             (-2.82941e-12 -1.14344e-11 0)             (-2.00861e-12 -1.09454e-11 0)             (-1.49584e-12 -1.05971e-11 0)             (-7.7934e-13 -1.00734e-11 0)             (6.93749e-14 -9.34533e-12 0)             (6.29133e-13 -8.74321e-12 0)             (1.12807e-12 -8.15635e-12 0)             (1.69767e-12 -7.32438e-12 0)             (2.16568e-12 -6.4919e-12 0)             (2.53686e-12 -5.64529e-12 0)             (2.88434e-12 -4.67249e-12 0)             (3.07585e-12 -3.83634e-12 0)             (3.24985e-12 -2.72668e-12 0)             (3.30727e-12 -1.83977e-12 0)             (3.29758e-12 -7.8245e-13 0)