# Probe 0 (15.31 -0.61 0)
# Probe 1 (15.31 -0.6 0)
# Probe 2 (15.31 -0.59 0)
# Probe 3 (15.31 -0.58 0)
# Probe 4 (15.31 -0.57 0)
# Probe 5 (15.31 -0.56 0)
# Probe 6 (15.31 -0.55 0)
# Probe 7 (15.31 -0.54 0)
# Probe 8 (15.31 -0.53 0)
# Probe 9 (15.31 -0.52 0)
# Probe 10 (15.31 -0.51 0)
# Probe 11 (15.31 -0.5 0)
# Probe 12 (15.31 -0.49 0)
# Probe 13 (15.31 -0.48 0)
# Probe 14 (15.31 -0.47 0)
# Probe 15 (15.31 -0.46 0)
# Probe 16 (15.31 -0.45 0)
# Probe 17 (15.31 -0.44 0)
# Probe 18 (15.31 -0.43 0)
# Probe 19 (15.31 -0.42 0)
# Probe 20 (15.31 -0.41 0)
# Probe 21 (15.31 -0.4 0)
# Probe 22 (15.31 -0.39 0)
# Probe 23 (15.31 -0.38 0)
# Probe 24 (15.31 -0.37 0)
# Probe 25 (15.31 -0.36 0)
# Probe 26 (15.31 -0.35 0)
# Probe 27 (15.31 -0.34 0)
# Probe 28 (15.31 -0.33 0)
# Probe 29 (15.31 -0.32 0)
# Probe 30 (15.31 -0.31 0)
# Probe 31 (15.31 -0.3 0)
# Probe 32 (15.31 -0.29 0)
# Probe 33 (15.31 -0.28 0)
# Probe 34 (15.31 -0.27 0)
# Probe 35 (15.31 -0.26 0)
# Probe 36 (15.31 -0.25 0)
# Probe 37 (15.31 -0.24 0)
# Probe 38 (15.31 -0.23 0)
# Probe 39 (15.31 -0.22 0)
# Probe 40 (15.31 -0.21 0)
# Probe 41 (15.31 -0.2 0)
# Probe 42 (15.31 -0.19 0)
# Probe 43 (15.31 -0.18 0)
# Probe 44 (15.31 -0.17 0)
# Probe 45 (15.31 -0.16 0)
# Probe 46 (15.31 -0.15 0)
# Probe 47 (15.31 -0.14 0)
# Probe 48 (15.31 -0.13 0)
# Probe 49 (15.31 -0.12 0)
# Probe 50 (15.31 -0.11 0)
# Probe 51 (15.31 -0.1 0)
# Probe 52 (15.31 -0.09 0)
# Probe 53 (15.31 -0.08 0)
# Probe 54 (15.31 -0.07 0)
# Probe 55 (15.31 -0.06 0)
# Probe 56 (15.31 -0.05 0)
# Probe 57 (15.31 -0.04 0)
# Probe 58 (15.31 -0.03 0)
# Probe 59 (15.31 -0.02 0)
# Probe 60 (15.31 -0.01 0)
# Probe 61 (15.31 0 0)
# Probe 62 (15.31 0.01 0)
# Probe 63 (15.31 0.02 0)
# Probe 64 (15.31 0.03 0)
# Probe 65 (15.31 0.04 0)
# Probe 66 (15.31 0.05 0)
# Probe 67 (15.31 0.06 0)
# Probe 68 (15.31 0.07 0)
# Probe 69 (15.31 0.08 0)
# Probe 70 (15.31 0.09 0)
# Probe 71 (15.31 0.1 0)
# Probe 72 (15.31 0.11 0)
# Probe 73 (15.31 0.12 0)
# Probe 74 (15.31 0.13 0)
# Probe 75 (15.31 0.14 0)
#       Probe             0             1             2             3             4             5             6             7             8             9            10            11            12            13            14            15            16            17            18            19            20            21            22            23            24            25            26            27            28            29            30            31            32            33            34            35            36            37            38            39            40            41            42            43            44            45            46            47            48            49            50            51            52            53            54            55            56            57            58            59            60            61            62            63            64            65            66            67            68            69            70            71            72            73            74            75
#        Time
          0.1             (-2.50239e-12 1.35841e-12 0)             (-2.15178e-12 3.43588e-12 0)             (-1.78132e-12 3.70133e-12 0)             (-1.78132e-12 3.70133e-12 0)             (-1.62046e-12 2.28948e-12 0)             (-1.67266e-12 6.4188e-13 0)             (-1.83733e-12 -2.373e-13 0)             (-1.9879e-12 -3.79035e-13 0)             (-1.9879e-12 -3.79035e-13 0)             (-2.03333e-12 -1.8966e-13 0)             (-1.91377e-12 1.07995e-13 0)             (-1.64902e-12 4.09725e-13 0)             (-1.28598e-12 6.88429e-13 0)             (-8.82911e-13 9.24617e-13 0)             (-8.82911e-13 9.24617e-13 0)             (-4.99068e-13 1.11789e-12 0)             (-1.71247e-13 1.28794e-12 0)             (8.02691e-14 1.44117e-12 0)             (2.51732e-13 1.55448e-12 0)             (3.53468e-13 1.6185e-12 0)             (4.00614e-13 1.6241e-12 0)             (3.96146e-13 1.56123e-12 0)             (3.54606e-13 1.42034e-12 0)             (2.88919e-13 1.22364e-12 0)             (2.01876e-13 9.75269e-13 0)             (1.09474e-13 6.55637e-13 0)             (1.37792e-14 3.07322e-13 0)             (-8.10255e-14 -5.69263e-14 0)             (-1.74672e-13 -4.48657e-13 0)             (-2.6587e-13 -8.60999e-13 0)             (-4.37718e-13 -1.70243e-12 0)             (-5.17048e-13 -2.0999e-12 0)             (-5.96187e-13 -2.48304e-12 0)             (-6.69504e-13 -2.86117e-12 0)             (-7.41974e-13 -3.21706e-12 0)             (-8.11964e-13 -3.55105e-12 0)             (-9.39241e-13 -4.14493e-12 0)             (-9.97505e-13 -4.40485e-12 0)             (-1.04717e-12 -4.64698e-12 0)             (-1.13009e-12 -5.05029e-12 0)             (-1.15881e-12 -5.19008e-12 0)             (-1.19735e-12 -5.48349e-12 0)             (-1.21107e-12 -5.60759e-12 0)             (-1.22043e-12 -5.72731e-12 0)             (-1.23536e-12 -5.91606e-12 0)             (-1.25144e-12 -6.08439e-12 0)             (-1.25857e-12 -6.1381e-12 0)             (-1.27734e-12 -6.2598e-12 0)             (-1.28901e-12 -6.29077e-12 0)             (-1.31708e-12 -6.36852e-12 0)             (-1.35479e-12 -6.37938e-12 0)             (-1.40221e-12 -6.41547e-12 0)             (-1.45939e-12 -6.42779e-12 0)             (-1.52602e-12 -6.39412e-12 0)             (-1.59855e-12 -6.38129e-12 0)             (-1.67661e-12 -6.33319e-12 0)             (-1.7586e-12 -6.26526e-12 0)             (-1.8451e-12 -6.1666e-12 0)             (-1.93771e-12 -6.09812e-12 0)             (-2.0903e-12 -5.88652e-12 0)             (-2.20161e-12 -5.75778e-12 0)             (-2.37832e-12 -5.5252e-12 0)             (-2.56411e-12 -5.23486e-12 0)             (-2.68991e-12 -5.06631e-12 0)             (-2.88229e-12 -4.74255e-12 0)             (-3.13764e-12 -4.33099e-12 0)             (-3.32529e-12 -3.97858e-12 0)             (-3.50606e-12 -3.67254e-12 0)             (-3.73203e-12 -3.20699e-12 0)             (-3.9368e-12 -2.78707e-12 0)             (-4.11904e-12 -2.33022e-12 0)             (-4.3069e-12 -1.81426e-12 0)             (-4.42926e-12 -1.46912e-12 0)             (-4.56048e-12 -8.808e-13 0)             (-4.62744e-12 -4.40717e-13 0)             (-4.66698e-12 -1.97359e-15 0)
          0.2             (1.59296e-11 2.26325e-12 0)             (1.58585e-11 3.33565e-12 0)             (1.5704e-11 6.21926e-13 0)             (1.5704e-11 6.21926e-13 0)             (1.51751e-11 -2.2904e-12 0)             (1.43724e-11 -4.47054e-12 0)             (1.34901e-11 -5.62123e-12 0)             (1.27053e-11 -6.20076e-12 0)             (1.27053e-11 -6.20076e-12 0)             (1.20962e-11 -6.59512e-12 0)             (1.16697e-11 -6.97796e-12 0)             (1.13732e-11 -7.38934e-12 0)             (1.11384e-11 -7.79217e-12 0)             (1.09142e-11 -8.18922e-12 0)             (1.09142e-11 -8.18922e-12 0)             (1.06574e-11 -8.56206e-12 0)             (1.03545e-11 -8.91237e-12 0)             (1.00047e-11 -9.25265e-12 0)             (9.61988e-12 -9.6002e-12 0)             (9.21602e-12 -9.97267e-12 0)             (8.81106e-12 -1.0364e-11 0)             (8.41586e-12 -1.07667e-11 0)             (8.04187e-12 -1.11802e-11 0)             (7.69476e-12 -1.16027e-11 0)             (7.38354e-12 -1.20068e-11 0)             (7.10948e-12 -1.23826e-11 0)             (6.87245e-12 -1.27042e-11 0)             (6.6715e-12 -1.29915e-11 0)             (6.50416e-12 -1.32272e-11 0)             (6.36728e-12 -1.33939e-11 0)             (6.17088e-12 -1.3579e-11 0)             (6.10734e-12 -1.35726e-11 0)             (6.0634e-12 -1.35138e-11 0)             (6.03871e-12 -1.3407e-11 0)             (6.03083e-12 -1.32502e-11 0)             (6.03825e-12 -1.30414e-11 0)             (6.0933e-12 -1.25609e-11 0)             (6.13535e-12 -1.22566e-11 0)             (6.18771e-12 -1.19251e-11 0)             (6.30804e-12 -1.12659e-11 0)             (6.37502e-12 -1.08921e-11 0)             (6.51107e-12 -1.01481e-11 0)             (6.57687e-12 -9.78258e-12 0)             (6.63997e-12 -9.39007e-12 0)             (6.74958e-12 -8.64228e-12 0)             (6.83087e-12 -7.8946e-12 0)             (6.86226e-12 -7.52246e-12 0)             (6.89496e-12 -6.84015e-12 0)             (6.89746e-12 -6.48029e-12 0)             (6.86921e-12 -5.81131e-12 0)             (6.7999e-12 -5.14732e-12 0)             (6.68574e-12 -4.53645e-12 0)             (6.52596e-12 -3.91542e-12 0)             (6.32328e-12 -3.31803e-12 0)             (6.08126e-12 -2.76429e-12 0)             (5.80631e-12 -2.24384e-12 0)             (5.50582e-12 -1.78721e-12 0)             (5.18374e-12 -1.37233e-12 0)             (4.85175e-12 -1.0325e-12 0)             (4.35104e-12 -6.65752e-13 0)             (4.0312e-12 -5.59258e-13 0)             (3.58153e-12 -4.05718e-13 0)             (3.1699e-12 -2.64199e-13 0)             (2.91929e-12 -1.77366e-13 0)             (2.58545e-12 -1.04827e-13 0)             (2.20554e-12 -1.04809e-13 0)             (1.97281e-12 -1.5013e-13 0)             (1.77308e-12 -2.82092e-13 0)             (1.55676e-12 -3.48431e-13 0)             (1.38303e-12 -3.87615e-13 0)             (1.24789e-12 -4.64899e-13 0)             (1.1184e-12 -5.33622e-13 0)             (1.04367e-12 -5.20387e-13 0)             (9.6249e-13 -4.84534e-13 0)             (9.18593e-13 -4.98199e-13 0)             (8.81118e-13 -4.56271e-13 0)
          0.3             (2.40528e-12 5.89534e-13 0)             (1.12685e-12 -7.67239e-13 0)             (1.45869e-13 -3.13673e-12 0)             (1.45869e-13 -3.13673e-12 0)             (-5.18113e-14 -4.14097e-12 0)             (3.13236e-13 -5.14694e-12 0)             (8.12987e-13 -5.77883e-12 0)             (1.24927e-12 -6.09261e-12 0)             (1.24927e-12 -6.09261e-12 0)             (1.59307e-12 -6.27236e-12 0)             (1.8806e-12 -6.49825e-12 0)             (2.16452e-12 -6.9054e-12 0)             (2.46571e-12 -7.49905e-12 0)             (2.79549e-12 -8.2228e-12 0)             (2.79549e-12 -8.2228e-12 0)             (3.13009e-12 -8.98231e-12 0)             (3.46184e-12 -9.70781e-12 0)             (3.77657e-12 -1.03585e-11 0)             (4.07809e-12 -1.08884e-11 0)             (4.37298e-12 -1.13113e-11 0)             (4.67553e-12 -1.16163e-11 0)             (4.99208e-12 -1.18113e-11 0)             (5.3376e-12 -1.19412e-11 0)             (5.71759e-12 -1.19969e-11 0)             (6.1389e-12 -1.20058e-11 0)             (6.60604e-12 -1.19912e-11 0)             (7.11239e-12 -1.19362e-11 0)             (7.66047e-12 -1.1865e-11 0)             (8.23839e-12 -1.17842e-11 0)             (8.84136e-12 -1.17095e-11 0)             (1.00899e-11 -1.15557e-11 0)             (1.07186e-11 -1.14548e-11 0)             (1.13379e-11 -1.13445e-11 0)             (1.19432e-11 -1.12125e-11 0)             (1.25247e-11 -1.10816e-11 0)             (1.30837e-11 -1.09314e-11 0)             (1.41062e-11 -1.05917e-11 0)             (1.45635e-11 -1.04018e-11 0)             (1.49812e-11 -1.02219e-11 0)             (1.56829e-11 -9.81352e-12 0)             (1.5972e-11 -9.61078e-12 0)             (1.64279e-11 -9.20738e-12 0)             (1.65967e-11 -9.01169e-12 0)             (1.67303e-11 -8.81525e-12 0)             (1.68903e-11 -8.42938e-12 0)             (1.69187e-11 -8.08538e-12 0)             (1.68886e-11 -7.924e-12 0)             (1.67519e-11 -7.61395e-12 0)             (1.665e-11 -7.47247e-12 0)             (1.63834e-11 -7.19039e-12 0)             (1.60497e-11 -6.9308e-12 0)             (1.56596e-11 -6.74011e-12 0)             (1.52244e-11 -6.53687e-12 0)             (1.47487e-11 -6.37954e-12 0)             (1.42489e-11 -6.22643e-12 0)             (1.37287e-11 -6.13946e-12 0)             (1.32011e-11 -6.04617e-12 0)             (1.26677e-11 -5.93487e-12 0)             (1.21357e-11 -5.82141e-12 0)             (1.13539e-11 -5.58333e-12 0)             (1.08564e-11 -5.38035e-12 0)             (1.01505e-11 -5.05176e-12 0)             (9.49702e-12 -4.72284e-12 0)             (9.09173e-12 -4.55187e-12 0)             (8.53026e-12 -4.21971e-12 0)             (7.86971e-12 -3.83094e-12 0)             (7.43561e-12 -3.53319e-12 0)             (7.05227e-12 -3.23346e-12 0)             (6.61947e-12 -2.85537e-12 0)             (6.26517e-12 -2.45757e-12 0)             (5.99203e-12 -2.08998e-12 0)             (5.74103e-12 -1.55075e-12 0)             (5.61099e-12 -1.21005e-12 0)             (5.49862e-12 -7.43297e-13 0)             (5.47086e-12 -4.01304e-13 0)             (5.50233e-12 -9.98913e-14 0)
          0.4             (-1.79081e-11 2.32582e-13 0)             (-1.87097e-11 -4.78971e-13 0)             (-1.92136e-11 -1.33483e-12 0)             (-1.92136e-11 -1.33483e-12 0)             (-1.91069e-11 -1.29393e-12 0)             (-1.86501e-11 -1.22473e-12 0)             (-1.81816e-11 -9.91448e-13 0)             (-1.78465e-11 -8.53279e-13 0)             (-1.78465e-11 -8.53279e-13 0)             (-1.76556e-11 -9.20648e-13 0)             (-1.75703e-11 -1.20224e-12 0)             (-1.75509e-11 -1.67045e-12 0)             (-1.75705e-11 -2.2149e-12 0)             (-1.76122e-11 -2.7507e-12 0)             (-1.76122e-11 -2.7507e-12 0)             (-1.76706e-11 -3.2212e-12 0)             (-1.77249e-11 -3.57061e-12 0)             (-1.77664e-11 -3.80791e-12 0)             (-1.77831e-11 -3.93892e-12 0)             (-1.77682e-11 -3.96437e-12 0)             (-1.77102e-11 -3.89345e-12 0)             (-1.76085e-11 -3.75555e-12 0)             (-1.74574e-11 -3.57945e-12 0)             (-1.72555e-11 -3.38245e-12 0)             (-1.70092e-11 -3.17701e-12 0)             (-1.67157e-11 -2.97106e-12 0)             (-1.6384e-11 -2.76043e-12 0)             (-1.60203e-11 -2.5572e-12 0)             (-1.56342e-11 -2.37139e-12 0)             (-1.5231e-11 -2.19548e-12 0)             (-1.44114e-11 -1.83442e-12 0)             (-1.40108e-11 -1.65644e-12 0)             (-1.3628e-11 -1.48464e-12 0)             (-1.32628e-11 -1.32338e-12 0)             (-1.29269e-11 -1.17181e-12 0)             (-1.26213e-11 -1.03321e-12 0)             (-1.21175e-11 -7.54025e-13 0)             (-1.19201e-11 -5.99635e-13 0)             (-1.17571e-11 -4.33231e-13 0)             (-1.15425e-11 -1.12409e-13 0)             (-1.14888e-11 4.65317e-14 0)             (-1.14744e-11 3.56069e-13 0)             (-1.15141e-11 4.97299e-13 0)             (-1.15832e-11 6.30193e-13 0)             (-1.17968e-11 8.70426e-13 0)             (-1.2111e-11 1.08335e-12 0)             (-1.22989e-11 1.172e-12 0)             (-1.27328e-11 1.32099e-12 0)             (-1.29711e-11 1.37878e-12 0)             (-1.34908e-11 1.46893e-12 0)             (-1.40518e-11 1.55254e-12 0)             (-1.46388e-11 1.58985e-12 0)             (-1.5245e-11 1.61519e-12 0)             (-1.58575e-11 1.60941e-12 0)             (-1.64682e-11 1.58081e-12 0)             (-1.70701e-11 1.49631e-12 0)             (-1.7668e-11 1.43274e-12 0)             (-1.8261e-11 1.40047e-12 0)             (-1.88531e-11 1.34095e-12 0)             (-1.97186e-11 1.23873e-12 0)             (-2.02743e-11 1.16555e-12 0)             (-2.10742e-11 1.09699e-12 0)             (-2.18219e-11 1.0597e-12 0)             (-2.22844e-11 1.01684e-12 0)             (-2.2929e-11 9.78503e-13 0)             (-2.36854e-11 9.25641e-13 0)             (-2.41796e-11 8.97753e-13 0)             (-2.4609e-11 9.19726e-13 0)             (-2.50872e-11 9.04487e-13 0)             (-2.54726e-11 8.37097e-13 0)             (-2.57756e-11 7.58805e-13 0)             (-2.60636e-11 6.73742e-13 0)             (-2.62315e-11 5.9823e-13 0)             (-2.63952e-11 3.74756e-13 0)             (-2.64675e-11 2.81651e-13 0)             (-2.64857e-11 -1.59781e-14 0)
          0.5             (3.09328e-12 -1.13846e-13 0)             (2.8781e-12 -1.12541e-12 0)             (3.05988e-12 -2.02244e-12 0)             (3.05988e-12 -2.02244e-12 0)             (3.71159e-12 -2.30951e-12 0)             (4.52641e-12 -2.65466e-12 0)             (5.23709e-12 -2.76379e-12 0)             (5.73916e-12 -2.85506e-12 0)             (5.73916e-12 -2.85506e-12 0)             (6.03239e-12 -2.94068e-12 0)             (6.14913e-12 -3.07537e-12 0)             (6.12742e-12 -3.30111e-12 0)             (6.00261e-12 -3.59614e-12 0)             (5.80455e-12 -3.93888e-12 0)             (5.80455e-12 -3.93888e-12 0)             (5.54834e-12 -4.33325e-12 0)             (5.26099e-12 -4.7576e-12 0)             (4.96041e-12 -5.19525e-12 0)             (4.65452e-12 -5.63818e-12 0)             (4.35481e-12 -6.07756e-12 0)             (4.06395e-12 -6.50686e-12 0)             (3.78252e-12 -6.91492e-12 0)             (3.5107e-12 -7.28911e-12 0)             (3.24875e-12 -7.65784e-12 0)             (2.99145e-12 -8.02433e-12 0)             (2.74329e-12 -8.37041e-12 0)             (2.49794e-12 -8.71321e-12 0)             (2.25407e-12 -9.0419e-12 0)             (2.01328e-12 -9.36342e-12 0)             (1.7715e-12 -9.67653e-12 0)             (1.28337e-12 -1.02533e-11 0)             (1.03741e-12 -1.05462e-11 0)             (7.914e-13 -1.08713e-11 0)             (5.57507e-13 -1.1195e-11 0)             (3.25116e-13 -1.14836e-11 0)             (9.92967e-14 -1.1747e-11 0)             (-3.3438e-13 -1.22155e-11 0)             (-5.35002e-13 -1.24085e-11 0)             (-7.27942e-13 -1.25904e-11 0)             (-1.07421e-12 -1.2951e-11 0)             (-1.22179e-12 -1.31138e-11 0)             (-1.46081e-12 -1.34171e-11 0)             (-1.55125e-12 -1.35555e-11 0)             (-1.61821e-12 -1.37021e-11 0)             (-1.68072e-12 -1.39663e-11 0)             (-1.65039e-12 -1.417e-11 0)             (-1.60027e-12 -1.42725e-11 0)             (-1.43144e-12 -1.44558e-11 0)             (-1.31196e-12 -1.45286e-11 0)             (-1.01382e-12 -1.46249e-11 0)             (-6.39864e-13 -1.46568e-11 0)             (-1.98556e-13 -1.4654e-11 0)             (2.96658e-13 -1.45906e-11 0)             (8.38068e-13 -1.44253e-11 0)             (1.41879e-12 -1.42388e-11 0)             (2.03443e-12 -1.39637e-11 0)             (2.68076e-12 -1.36048e-11 0)             (3.35074e-12 -1.32535e-11 0)             (4.03377e-12 -1.28576e-11 0)             (5.07844e-12 -1.22227e-11 0)             (5.77344e-12 -1.1842e-11 0)             (6.78803e-12 -1.12801e-11 0)             (7.7584e-12 -1.06211e-11 0)             (8.37565e-12 -1.01715e-11 0)             (9.25016e-12 -9.51829e-12 0)             (1.032e-11 -8.61387e-12 0)             (1.10448e-11 -7.91858e-12 0)             (1.16967e-11 -7.26081e-12 0)             (1.24608e-11 -6.39071e-12 0)             (1.31152e-11 -5.55691e-12 0)             (1.3672e-11 -4.7846e-12 0)             (1.42304e-11 -3.85141e-12 0)             (1.45799e-11 -3.18009e-12 0)             (1.49659e-11 -2.25121e-12 0)             (1.51709e-11 -1.55421e-12 0)             (1.53181e-11 -6.1515e-13 0)
          0.6             (-6.67519e-12 9.18246e-13 0)             (-6.93703e-12 1.54863e-12 0)             (-7.23253e-12 1.28844e-12 0)             (-7.23253e-12 1.28844e-12 0)             (-7.64075e-12 5.73477e-13 0)             (-8.06443e-12 -7.99908e-13 0)             (-8.37155e-12 -2.04562e-12 0)             (-8.5339e-12 -3.10602e-12 0)             (-8.5339e-12 -3.10602e-12 0)             (-8.55269e-12 -3.83336e-12 0)             (-8.45185e-12 -4.25131e-12 0)             (-8.25094e-12 -4.45103e-12 0)             (-7.96767e-12 -4.51806e-12 0)             (-7.61394e-12 -4.52564e-12 0)             (-7.61394e-12 -4.52564e-12 0)             (-7.20379e-12 -4.52962e-12 0)             (-6.74304e-12 -4.55323e-12 0)             (-6.25286e-12 -4.60492e-12 0)             (-5.74295e-12 -4.68121e-12 0)             (-5.22387e-12 -4.78003e-12 0)             (-4.70176e-12 -4.88068e-12 0)             (-4.18314e-12 -4.98185e-12 0)             (-3.66675e-12 -5.07418e-12 0)             (-3.15288e-12 -5.17256e-12 0)             (-2.63845e-12 -5.27252e-12 0)             (-2.11497e-12 -5.35912e-12 0)             (-1.58767e-12 -5.444e-12 0)             (-1.04793e-12 -5.52353e-12 0)             (-4.93974e-13 -5.58935e-12 0)             (7.51556e-14 -5.64572e-12 0)             (1.25851e-12 -5.71208e-12 0)             (1.86951e-12 -5.73574e-12 0)             (2.49374e-12 -5.74445e-12 0)             (3.12765e-12 -5.74411e-12 0)             (3.76396e-12 -5.74498e-12 0)             (4.40353e-12 -5.75743e-12 0)             (5.67682e-12 -5.72016e-12 0)             (6.30947e-12 -5.70825e-12 0)             (6.93203e-12 -5.68306e-12 0)             (8.14325e-12 -5.61849e-12 0)             (8.73086e-12 -5.58817e-12 0)             (9.85754e-12 -5.50887e-12 0)             (1.03938e-11 -5.47703e-12 0)             (1.0912e-11 -5.46199e-12 0)             (1.18941e-11 -5.39684e-12 0)             (1.27968e-11 -5.36664e-12 0)             (1.32181e-11 -5.36216e-12 0)             (1.39977e-11 -5.3296e-12 0)             (1.43588e-11 -5.3231e-12 0)             (1.50202e-11 -5.32842e-12 0)             (1.56041e-11 -5.29965e-12 0)             (1.61119e-11 -5.28529e-12 0)             (1.65508e-11 -5.23326e-12 0)             (1.69216e-11 -5.19258e-12 0)             (1.72318e-11 -5.09127e-12 0)             (1.74852e-11 -4.99513e-12 0)             (1.76869e-11 -4.85873e-12 0)             (1.78389e-11 -4.72625e-12 0)             (1.79482e-11 -4.5797e-12 0)             (1.8047e-11 -4.36185e-12 0)             (1.8073e-11 -4.21358e-12 0)             (1.80734e-11 -4.0347e-12 0)             (1.80419e-11 -3.80939e-12 0)             (1.80032e-11 -3.66311e-12 0)             (1.79264e-11 -3.45429e-12 0)             (1.78072e-11 -3.15038e-12 0)             (1.77072e-11 -2.90381e-12 0)             (1.76014e-11 -2.68415e-12 0)             (1.74574e-11 -2.36151e-12 0)             (1.73174e-11 -2.05352e-12 0)             (1.7183e-11 -1.81452e-12 0)             (1.7024e-11 -1.41787e-12 0)             (1.69048e-11 -1.14253e-12 0)             (1.67367e-11 -7.8663e-13 0)             (1.66008e-11 -5.48956e-13 0)             (1.64185e-11 -2.40905e-13 0)
          0.7             (-7.62843e-12 3.72561e-13 0)             (-7.86907e-12 2.77905e-13 0)             (-7.69683e-12 -4.36817e-14 0)             (-7.69683e-12 -4.36817e-14 0)             (-7.32913e-12 -5.53559e-14 0)             (-7.06069e-12 -1.89741e-13 0)             (-7.00084e-12 -3.21753e-13 0)             (-7.15537e-12 -7.06273e-13 0)             (-7.15537e-12 -7.06273e-13 0)             (-7.44238e-12 -1.20747e-12 0)             (-7.77934e-12 -1.79372e-12 0)             (-8.09476e-12 -2.43928e-12 0)             (-8.34749e-12 -3.0742e-12 0)             (-8.51275e-12 -3.61584e-12 0)             (-8.51275e-12 -3.61584e-12 0)             (-8.57571e-12 -4.04987e-12 0)             (-8.53333e-12 -4.36377e-12 0)             (-8.38903e-12 -4.55678e-12 0)             (-8.1532e-12 -4.68857e-12 0)             (-7.82961e-12 -4.75792e-12 0)             (-7.43389e-12 -4.79016e-12 0)             (-6.97879e-12 -4.80957e-12 0)             (-6.47608e-12 -4.83364e-12 0)             (-5.93561e-12 -4.87255e-12 0)             (-5.36803e-12 -4.91109e-12 0)             (-4.7757e-12 -4.97381e-12 0)             (-4.17076e-12 -5.0572e-12 0)             (-3.55659e-12 -5.13427e-12 0)             (-2.93531e-12 -5.20891e-12 0)             (-2.30818e-12 -5.28524e-12 0)             (-1.0518e-12 -5.42638e-12 0)             (-4.22299e-13 -5.49578e-12 0)             (2.00272e-13 -5.56895e-12 0)             (8.18969e-13 -5.6185e-12 0)             (1.43135e-12 -5.63504e-12 0)             (2.03836e-12 -5.65401e-12 0)             (3.24357e-12 -5.62687e-12 0)             (3.84038e-12 -5.61454e-12 0)             (4.43187e-12 -5.58249e-12 0)             (5.60005e-12 -5.49314e-12 0)             (6.17567e-12 -5.42528e-12 0)             (7.30947e-12 -5.27975e-12 0)             (7.86399e-12 -5.20373e-12 0)             (8.41203e-12 -5.1196e-12 0)             (9.47963e-12 -4.91514e-12 0)             (1.05053e-11 -4.70886e-12 0)             (1.10013e-11 -4.59924e-12 0)             (1.1953e-11 -4.38403e-12 0)             (1.24109e-11 -4.26946e-12 0)             (1.32817e-11 -4.02795e-12 0)             (1.40918e-11 -3.81021e-12 0)             (1.48459e-11 -3.54304e-12 0)             (1.55402e-11 -3.29268e-12 0)             (1.61734e-11 -3.03162e-12 0)             (1.67515e-11 -2.76358e-12 0)             (1.72736e-11 -2.49677e-12 0)             (1.77439e-11 -2.21842e-12 0)             (1.81613e-11 -1.96557e-12 0)             (1.85324e-11 -1.69778e-12 0)             (1.901e-11 -1.34898e-12 0)             (1.92775e-11 -1.15237e-12 0)             (1.96299e-11 -8.54211e-13 0)             (1.99328e-11 -6.05646e-13 0)             (2.01041e-11 -4.82229e-13 0)             (2.03176e-11 -2.51485e-13 0)             (2.05422e-11 -1.29214e-14 0)             (2.06676e-11 1.65686e-13 0)             (2.0763e-11 2.82944e-13 0)             (2.08466e-11 4.15513e-13 0)             (2.08919e-11 5.44274e-13 0)             (2.09053e-11 6.28767e-13 0)             (2.08783e-11 6.76607e-13 0)             (2.08307e-11 6.86725e-13 0)             (2.0716e-11 6.55609e-13 0)             (2.05842e-11 5.94477e-13 0)             (2.03643e-11 3.58631e-13 0)
          0.8             (-1.00968e-11 2.17897e-13 0)             (-1.00561e-11 1.40326e-13 0)             (-9.64334e-12 1.37962e-13 0)             (-9.64334e-12 1.37962e-13 0)             (-9.25795e-12 7.48172e-14 0)             (-9.0244e-12 -5.65911e-13 0)             (-8.95995e-12 -1.24141e-12 0)             (-9.05655e-12 -1.93161e-12 0)             (-9.05655e-12 -1.93161e-12 0)             (-9.23878e-12 -2.48121e-12 0)             (-9.45529e-12 -2.95977e-12 0)             (-9.67e-12 -3.40634e-12 0)             (-9.84948e-12 -3.81794e-12 0)             (-9.97363e-12 -4.19481e-12 0)             (-9.97363e-12 -4.19481e-12 0)             (-1.00321e-11 -4.51445e-12 0)             (-1.00049e-11 -4.77227e-12 0)             (-9.89248e-12 -4.98678e-12 0)             (-9.69088e-12 -5.15161e-12 0)             (-9.39979e-12 -5.29093e-12 0)             (-9.0224e-12 -5.41802e-12 0)             (-8.57471e-12 -5.53805e-12 0)             (-8.05866e-12 -5.65785e-12 0)             (-7.48615e-12 -5.78627e-12 0)             (-6.87003e-12 -5.91059e-12 0)             (-6.21294e-12 -6.04121e-12 0)             (-5.53057e-12 -6.17704e-12 0)             (-4.8264e-12 -6.30568e-12 0)             (-4.11352e-12 -6.4235e-12 0)             (-3.38959e-12 -6.5362e-12 0)             (-1.92856e-12 -6.70979e-12 0)             (-1.1988e-12 -6.78048e-12 0)             (-4.73196e-13 -6.82914e-12 0)             (2.49557e-13 -6.84791e-12 0)             (9.63632e-13 -6.85931e-12 0)             (1.67536e-12 -6.83621e-12 0)             (3.08404e-12 -6.74463e-12 0)             (3.7837e-12 -6.6622e-12 0)             (4.47815e-12 -6.5804e-12 0)             (5.85566e-12 -6.34513e-12 0)             (6.53978e-12 -6.19981e-12 0)             (7.8884e-12 -5.8975e-12 0)             (8.55181e-12 -5.7294e-12 0)             (9.20792e-12 -5.56841e-12 0)             (1.04869e-11 -5.24504e-12 0)             (1.17233e-11 -4.89465e-12 0)             (1.2321e-11 -4.74129e-12 0)             (1.34768e-11 -4.39712e-12 0)             (1.40327e-11 -4.22014e-12 0)             (1.51008e-11 -3.89299e-12 0)             (1.61028e-11 -3.53511e-12 0)             (1.70413e-11 -3.20568e-12 0)             (1.79146e-11 -2.872e-12 0)             (1.87209e-11 -2.55323e-12 0)             (1.94628e-11 -2.2423e-12 0)             (2.01454e-11 -1.92619e-12 0)             (2.07639e-11 -1.62781e-12 0)             (2.13264e-11 -1.33165e-12 0)             (2.18296e-11 -1.05078e-12 0)             (2.24969e-11 -6.78452e-13 0)             (2.28841e-11 -4.67211e-13 0)             (2.34008e-11 -1.5192e-13 0)             (2.38621e-11 1.28489e-13 0)             (2.41306e-11 2.89638e-13 0)             (2.44724e-11 4.82837e-13 0)             (2.48391e-11 7.20417e-13 0)             (2.50507e-11 8.75229e-13 0)             (2.52167e-11 9.89531e-13 0)             (2.5369e-11 1.08785e-12 0)             (2.54554e-11 1.16331e-12 0)             (2.54884e-11 1.18346e-12 0)             (2.54532e-11 1.16634e-12 0)             (2.53814e-11 1.06347e-12 0)             (2.52075e-11 9.39523e-13 0)             (2.50028e-11 7.45233e-13 0)             (2.46602e-11 3.50437e-13 0)