# Probe 0 (15.31 -0.61 0)
# Probe 1 (15.31 -0.6 0)
# Probe 2 (15.31 -0.59 0)
# Probe 3 (15.31 -0.58 0)
# Probe 4 (15.31 -0.57 0)
# Probe 5 (15.31 -0.56 0)
# Probe 6 (15.31 -0.55 0)
# Probe 7 (15.31 -0.54 0)
# Probe 8 (15.31 -0.53 0)
# Probe 9 (15.31 -0.52 0)
# Probe 10 (15.31 -0.51 0)
# Probe 11 (15.31 -0.5 0)
# Probe 12 (15.31 -0.49 0)
# Probe 13 (15.31 -0.48 0)
# Probe 14 (15.31 -0.47 0)
# Probe 15 (15.31 -0.46 0)
# Probe 16 (15.31 -0.45 0)
# Probe 17 (15.31 -0.44 0)
# Probe 18 (15.31 -0.43 0)
# Probe 19 (15.31 -0.42 0)
# Probe 20 (15.31 -0.41 0)
# Probe 21 (15.31 -0.4 0)
# Probe 22 (15.31 -0.39 0)
# Probe 23 (15.31 -0.38 0)
# Probe 24 (15.31 -0.37 0)
# Probe 25 (15.31 -0.36 0)
# Probe 26 (15.31 -0.35 0)
# Probe 27 (15.31 -0.34 0)
# Probe 28 (15.31 -0.33 0)
# Probe 29 (15.31 -0.32 0)
# Probe 30 (15.31 -0.31 0)
# Probe 31 (15.31 -0.3 0)
# Probe 32 (15.31 -0.29 0)
# Probe 33 (15.31 -0.28 0)
# Probe 34 (15.31 -0.27 0)
# Probe 35 (15.31 -0.26 0)
# Probe 36 (15.31 -0.25 0)
# Probe 37 (15.31 -0.24 0)
# Probe 38 (15.31 -0.23 0)
# Probe 39 (15.31 -0.22 0)
# Probe 40 (15.31 -0.21 0)
# Probe 41 (15.31 -0.2 0)
# Probe 42 (15.31 -0.19 0)
# Probe 43 (15.31 -0.18 0)
# Probe 44 (15.31 -0.17 0)
# Probe 45 (15.31 -0.16 0)
# Probe 46 (15.31 -0.15 0)
# Probe 47 (15.31 -0.14 0)
# Probe 48 (15.31 -0.13 0)
# Probe 49 (15.31 -0.12 0)
# Probe 50 (15.31 -0.11 0)
# Probe 51 (15.31 -0.1 0)
# Probe 52 (15.31 -0.09 0)
# Probe 53 (15.31 -0.08 0)
# Probe 54 (15.31 -0.07 0)
# Probe 55 (15.31 -0.06 0)
# Probe 56 (15.31 -0.05 0)
# Probe 57 (15.31 -0.04 0)
# Probe 58 (15.31 -0.03 0)
# Probe 59 (15.31 -0.02 0)
# Probe 60 (15.31 -0.01 0)
# Probe 61 (15.31 0 0)
# Probe 62 (15.31 0.01 0)
# Probe 63 (15.31 0.02 0)
# Probe 64 (15.31 0.03 0)
# Probe 65 (15.31 0.04 0)
# Probe 66 (15.31 0.05 0)
# Probe 67 (15.31 0.06 0)
# Probe 68 (15.31 0.07 0)
# Probe 69 (15.31 0.08 0)
# Probe 70 (15.31 0.09 0)
# Probe 71 (15.31 0.1 0)
# Probe 72 (15.31 0.11 0)
# Probe 73 (15.31 0.12 0)
# Probe 74 (15.31 0.13 0)
# Probe 75 (15.31 0.14 0)
#       Probe             0             1             2             3             4             5             6             7             8             9            10            11            12            13            14            15            16            17            18            19            20            21            22            23            24            25            26            27            28            29            30            31            32            33            34            35            36            37            38            39            40            41            42            43            44            45            46            47            48            49            50            51            52            53            54            55            56            57            58            59            60            61            62            63            64            65            66            67            68            69            70            71            72            73            74            75
#        Time
         22.1             (-1.62458e-10 -1.35913e-11 0)             (-1.67766e-10 -1.77956e-11 0)             (-1.74284e-10 -2.17973e-11 0)             (-1.78895e-10 -2.61383e-11 0)             (-1.80933e-10 -3.04694e-11 0)             (-1.78005e-10 -3.77281e-11 0)             (-1.74648e-10 -3.98631e-11 0)             (-1.7125e-10 -4.08269e-11 0)             (-1.68548e-10 -4.06524e-11 0)             (-1.67042e-10 -3.7405e-11 0)             (-1.68567e-10 -3.47143e-11 0)             (-1.71519e-10 -3.14978e-11 0)             (-1.80709e-10 -2.41507e-11 0)             (-1.86314e-10 -2.03255e-11 0)             (-1.92127e-10 -1.65512e-11 0)             (-2.0315e-10 -9.58417e-12 0)             (-2.07896e-10 -6.52436e-12 0)             (-2.11934e-10 -3.78777e-12 0)             (-2.17415e-10 6.75317e-13 0)             (-2.18805e-10 2.41189e-12 0)             (-2.19042e-10 4.94477e-12 0)             (-2.17999e-10 5.80244e-12 0)             (-2.16332e-10 6.40568e-12 0)             (-2.11447e-10 6.9612e-12 0)             (-2.08435e-10 6.98221e-12 0)             (-2.01772e-10 6.56564e-12 0)             (-1.98275e-10 6.18217e-12 0)             (-1.913e-10 5.13164e-12 0)             (-1.84769e-10 3.80439e-12 0)             (-1.81738e-10 3.07659e-12 0)             (-1.76334e-10 1.46977e-12 0)             (-1.7396e-10 6.40638e-13 0)             (-1.69951e-10 -1.05442e-12 0)             (-1.66813e-10 -2.77377e-12 0)             (-1.6558e-10 -3.63442e-12 0)             (-1.63674e-10 -5.32042e-12 0)             (-1.62395e-10 -6.94383e-12 0)             (-1.61641e-10 -8.56491e-12 0)             (-1.61422e-10 -9.3526e-12 0)             (-1.61158e-10 -1.0781e-11 0)             (-1.61033e-10 -1.20838e-11 0)             (-1.60972e-10 -1.32314e-11 0)             (-1.60871e-10 -1.40972e-11 0)             (-1.60668e-10 -1.47098e-11 0)             (-1.60336e-10 -1.50766e-11 0)             (-1.59888e-10 -1.51761e-11 0)             (-1.59222e-10 -1.50235e-11 0)             (-1.58316e-10 -1.46064e-11 0)             (-1.57224e-10 -1.39712e-11 0)             (-1.55898e-10 -1.31174e-11 0)             (-1.54324e-10 -1.20636e-11 0)             (-1.52562e-10 -1.08413e-11 0)             (-1.5061e-10 -9.5202e-12 0)             (-1.47338e-10 -7.49568e-12 0)             (-1.44974e-10 -6.09111e-12 0)             (-1.42457e-10 -4.62726e-12 0)             (-1.38427e-10 -2.41124e-12 0)             (-1.3559e-10 -9.30316e-13 0)             (-1.30995e-10 1.1184e-12 0)             (-1.27761e-10 2.39371e-12 0)             (-1.22544e-10 3.94624e-12 0)             (-1.21111e-10 4.69477e-12 0)             (-1.66805e-10 7.35827e-12 0)             (-1.90232e-10 9.84875e-12 0)             (-2.02998e-10 1.03649e-11 0)             (-2.09667e-10 1.03523e-11 0)             (-2.11676e-10 1.0594e-11 0)             (-2.09666e-10 1.12213e-11 0)             (-2.03825e-10 1.18207e-11 0)             (-1.93996e-10 1.18257e-11 0)             (-1.81084e-10 1.06102e-11 0)             (-1.66106e-10 8.11353e-12 0)             (-1.47567e-10 3.33274e-12 0)             (-1.3819e-10 6.82188e-14 0)             (-1.30834e-10 -1.57386e-12 0)             (-1.16193e-10 1.97504e-13 0)
         22.2             (-3.7286e-13 -1.29598e-11 0)             (-5.15175e-12 -1.44133e-11 0)             (-1.12979e-11 -1.76701e-11 0)             (-1.56892e-11 -2.28716e-11 0)             (-1.76034e-11 -2.83905e-11 0)             (-1.41844e-11 -3.5751e-11 0)             (-1.03334e-11 -3.67161e-11 0)             (-6.30953e-12 -3.62917e-11 0)             (-2.94629e-12 -3.49234e-11 0)             (-3.93321e-13 -3.06887e-11 0)             (-1.67411e-12 -2.8136e-11 0)             (-4.59126e-12 -2.52842e-11 0)             (-1.41881e-11 -1.85972e-11 0)             (-2.01114e-11 -1.48334e-11 0)             (-2.62209e-11 -1.09417e-11 0)             (-3.75788e-11 -3.37235e-12 0)             (-4.23101e-11 5.87631e-14 0)             (-4.62128e-11 3.15652e-12 0)             (-5.11266e-11 8.18219e-12 0)             (-5.21493e-11 1.00955e-11 0)             (-5.16571e-11 1.28908e-11 0)             (-5.03066e-11 1.38257e-11 0)             (-4.84001e-11 1.45213e-11 0)             (-4.32801e-11 1.53595e-11 0)             (-4.02757e-11 1.55504e-11 0)             (-3.38586e-11 1.55637e-11 0)             (-3.05796e-11 1.54027e-11 0)             (-2.41713e-11 1.47976e-11 0)             (-1.82989e-11 1.38356e-11 0)             (-1.56089e-11 1.32039e-11 0)             (-1.0865e-11 1.17598e-11 0)             (-8.80375e-12 1.08996e-11 0)             (-5.35287e-12 9.01428e-12 0)             (-2.67534e-12 6.92635e-12 0)             (-1.63049e-12 5.82545e-12 0)             (-8.04236e-15 3.55297e-12 0)             (1.12348e-12 1.22212e-12 0)             (1.86532e-12 -1.11091e-12 0)             (2.13227e-12 -2.27223e-12 0)             (2.60774e-12 -4.50499e-12 0)             (3.08827e-12 -6.67481e-12 0)             (3.63824e-12 -8.76101e-12 0)             (4.36444e-12 -1.06102e-11 0)             (5.34176e-12 -1.20772e-11 0)             (6.59339e-12 -1.33063e-11 0)             (8.07313e-12 -1.42476e-11 0)             (9.85288e-12 -1.48597e-11 0)             (1.19259e-11 -1.51557e-11 0)             (1.42106e-11 -1.51476e-11 0)             (1.67303e-11 -1.4911e-11 0)             (1.94806e-11 -1.44389e-11 0)             (2.23859e-11 -1.37595e-11 0)             (2.54347e-11 -1.29203e-11 0)             (3.02537e-11 -1.14616e-11 0)             (3.35821e-11 -1.03764e-11 0)             (3.70007e-11 -9.1835e-12 0)             (4.22597e-11 -7.29701e-12 0)             (4.58341e-11 -6.06072e-12 0)             (5.14087e-11 -4.16888e-12 0)             (5.52109e-11 -3.02083e-12 0)             (6.11571e-11 -1.47779e-12 0)             (6.29895e-11 -6.29146e-13 0)             (1.7789e-11 1.94979e-12 0)             (-5.2323e-12 4.70293e-12 0)             (-1.7584e-11 5.40467e-12 0)             (-2.38404e-11 5.46827e-12 0)             (-2.54401e-11 5.79385e-12 0)             (-2.30234e-11 6.58664e-12 0)             (-1.67831e-11 7.4633e-12 0)             (-6.56736e-12 7.78513e-12 0)             (6.72567e-12 7.09509e-12 0)             (2.20927e-11 5.0947e-12 0)             (4.11639e-11 9.24048e-13 0)             (5.0886e-11 -1.83711e-12 0)             (5.85599e-11 -2.65109e-12 0)             (7.3355e-11 -1.42855e-13 0)
         22.3             (1.46976e-10 -1.06402e-11 0)             (1.41233e-10 -1.50385e-11 0)             (1.34122e-10 -1.98131e-11 0)             (1.28984e-10 -2.46729e-11 0)             (1.26638e-10 -2.92621e-11 0)             (1.29736e-10 -3.70389e-11 0)             (1.33442e-10 -3.95455e-11 0)             (1.37236e-10 -4.08921e-11 0)             (1.40304e-10 -4.10688e-11 0)             (1.4224e-10 -3.82687e-11 0)             (1.40746e-10 -3.56523e-11 0)             (1.37705e-10 -3.24929e-11 0)             (1.28091e-10 -2.52993e-11 0)             (1.22193e-10 -2.1494e-11 0)             (1.16073e-10 -1.77333e-11 0)             (1.04461e-10 -1.07602e-11 0)             (9.94602e-11 -7.65356e-12 0)             (9.51981e-11 -4.87465e-12 0)             (8.93386e-11 -3.6722e-13 0)             (8.77736e-11 1.3759e-12 0)             (8.71587e-11 4.03624e-12 0)             (8.79796e-11 4.99456e-12 0)             (8.93933e-11 5.73492e-12 0)             (9.36604e-11 6.69668e-12 0)             (9.63002e-11 6.95968e-12 0)             (1.02106e-10 7.17058e-12 0)             (1.05126e-10 7.13387e-12 0)             (1.11061e-10 6.86511e-12 0)             (1.16469e-10 6.36102e-12 0)             (1.18915e-10 6.0198e-12 0)             (1.23134e-10 5.21245e-12 0)             (1.24911e-10 4.72506e-12 0)             (1.27751e-10 3.73741e-12 0)             (1.29762e-10 2.6573e-12 0)             (1.30454e-10 2.09891e-12 0)             (1.31347e-10 9.20922e-13 0)             (1.31712e-10 -3.5554e-13 0)             (1.31672e-10 -1.81478e-12 0)             (1.31543e-10 -2.6076e-12 0)             (1.31163e-10 -4.28506e-12 0)             (1.30664e-10 -5.82158e-12 0)             (1.30086e-10 -7.08506e-12 0)             (1.29542e-10 -8.16811e-12 0)             (1.29104e-10 -8.944e-12 0)             (1.28818e-10 -9.33522e-12 0)             (1.28666e-10 -9.39697e-12 0)             (1.28736e-10 -9.21994e-12 0)             (1.29016e-10 -8.78006e-12 0)             (1.29453e-10 -8.14304e-12 0)             (1.30092e-10 -7.32911e-12 0)             (1.3095e-10 -6.34426e-12 0)             (1.31984e-10 -5.23635e-12 0)             (1.33218e-10 -4.0126e-12 0)             (1.35455e-10 -2.08387e-12 0)             (1.37184e-10 -7.12992e-13 0)             (1.39105e-10 6.89813e-13 0)             (1.42313e-10 2.79834e-12 0)             (1.44645e-10 4.18585e-12 0)             (1.48532e-10 6.17173e-12 0)             (1.51317e-10 7.40481e-12 0)             (1.55868e-10 9.00977e-12 0)             (1.56848e-10 9.89174e-12 0)             (1.10438e-10 1.16276e-11 0)             (8.6283e-11 1.26379e-11 0)             (7.29018e-11 1.28763e-11 0)             (6.57728e-11 1.27729e-11 0)             (6.34469e-11 1.29871e-11 0)             (6.52691e-11 1.36306e-11 0)             (7.10382e-11 1.42379e-11 0)             (8.09156e-11 1.42321e-11 0)             (9.3988e-11 1.27166e-11 0)             (1.09202e-10 8.86676e-12 0)             (1.28151e-10 2.36531e-12 0)             (1.37818e-10 -1.41798e-12 0)             (1.45421e-10 -2.92079e-12 0)             (1.60125e-10 -1.03219e-12 0)
         22.4             (2.25538e-12 -1.19311e-11 0)             (-2.74612e-12 -1.55932e-11 0)             (-8.80497e-12 -1.98236e-11 0)             (-1.31001e-11 -2.45477e-11 0)             (-1.50398e-11 -2.91326e-11 0)             (-1.19834e-11 -3.63952e-11 0)             (-8.29619e-12 -3.82729e-11 0)             (-4.34313e-12 -3.8834e-11 0)             (-9.37654e-13 -3.81567e-11 0)             (1.92092e-12 -3.40288e-11 0)             (8.26567e-13 -3.10214e-11 0)             (-1.91654e-12 -2.76445e-11 0)             (-1.12592e-11 -2.05898e-11 0)             (-1.70967e-11 -1.71378e-11 0)             (-2.31326e-11 -1.37743e-11 0)             (-3.43848e-11 -7.49671e-12 0)             (-3.90738e-11 -4.7015e-12 0)             (-4.29399e-11 -2.13133e-12 0)             (-4.77899e-11 2.47887e-12 0)             (-4.87789e-11 4.53567e-12 0)             (-4.82183e-11 8.00035e-12 0)             (-4.68308e-11 9.46079e-12 0)             (-4.48823e-11 1.0745e-11 0)             (-3.96379e-11 1.27686e-11 0)             (-3.65529e-11 1.34843e-11 0)             (-2.99196e-11 1.43112e-11 0)             (-2.65031e-11 1.44053e-11 0)             (-1.97725e-11 1.40124e-11 0)             (-1.3528e-11 1.29094e-11 0)             (-1.06444e-11 1.21615e-11 0)             (-5.51748e-12 1.02808e-11 0)             (-3.27362e-12 9.20954e-12 0)             (5.1269e-13 6.81419e-12 0)             (3.48582e-12 4.24484e-12 0)             (4.65846e-12 2.94553e-12 0)             (6.48407e-12 4.24465e-13 0)             (7.72601e-12 -2.24919e-12 0)             (8.49422e-12 -4.99945e-12 0)             (8.74089e-12 -6.37643e-12 0)             (9.08134e-12 -9.08878e-12 0)             (9.28844e-12 -1.15515e-11 0)             (9.44447e-12 -1.36318e-11 0)             (9.69202e-12 -1.52368e-11 0)             (1.01055e-11 -1.64648e-11 0)             (1.07089e-11 -1.73427e-11 0)             (1.14885e-11 -1.79779e-11 0)             (1.25219e-11 -1.83748e-11 0)             (1.37933e-11 -1.85017e-11 0)             (1.52358e-11 -1.83044e-11 0)             (1.68856e-11 -1.78389e-11 0)             (1.87566e-11 -1.71225e-11 0)             (2.07935e-11 -1.62003e-11 0)             (2.30088e-11 -1.51066e-11 0)             (2.66727e-11 -1.32267e-11 0)             (2.93132e-11 -1.18509e-11 0)             (3.21223e-11 -1.04568e-11 0)             (3.66012e-11 -8.30416e-12 0)             (3.97377e-11 -6.90197e-12 0)             (4.47726e-11 -4.93058e-12 0)             (4.82794e-11 -3.75107e-12 0)             (5.387e-11 -2.21956e-12 0)             (5.55145e-11 -1.4374e-12 0)             (1.00966e-11 1.0979e-12 0)             (-1.30317e-11 3.24433e-12 0)             (-2.55186e-11 3.50428e-12 0)             (-3.19564e-11 3.41682e-12 0)             (-3.37803e-11 3.73183e-12 0)             (-3.16226e-11 4.53025e-12 0)             (-2.56649e-11 5.47027e-12 0)             (-1.57289e-11 6.03716e-12 0)             (-2.72144e-12 5.04005e-12 0)             (1.23336e-11 2.78258e-12 0)             (3.10278e-11 -6.35366e-13 0)             (4.05543e-11 -2.89055e-12 0)             (4.79823e-11 -3.31828e-12 0)             (6.24963e-11 -4.8415e-13 0)
         22.5             (2.89363e-10 -1.36358e-11 0)             (2.83975e-10 -1.76359e-11 0)             (2.7738e-10 -2.02667e-11 0)             (2.72789e-10 -2.33133e-11 0)             (2.70857e-10 -2.72915e-11 0)             (2.74013e-10 -3.64743e-11 0)             (2.77383e-10 -4.00402e-11 0)             (2.8072e-10 -4.22128e-11 0)             (2.8331e-10 -4.28668e-11 0)             (2.84517e-10 -4.00148e-11 0)             (2.82867e-10 -3.71931e-11 0)             (2.79813e-10 -3.38792e-11 0)             (2.70431e-10 -2.69126e-11 0)             (2.64689e-10 -2.36507e-11 0)             (2.58719e-10 -2.04918e-11 0)             (2.47314e-10 -1.47029e-11 0)             (2.42345e-10 -1.21954e-11 0)             (2.38072e-10 -9.94146e-12 0)             (2.32157e-10 -6.1733e-12 0)             (2.30582e-10 -4.63168e-12 0)             (2.30036e-10 -2.43935e-12 0)             (2.30958e-10 -1.66492e-12 0)             (2.32522e-10 -1.11457e-12 0)             (2.3725e-10 -6.0099e-13 0)             (2.4019e-10 -5.74289e-13 0)             (2.46691e-10 -9.14802e-13 0)             (2.50087e-10 -1.2593e-12 0)             (2.56804e-10 -2.18167e-12 0)             (2.63007e-10 -3.38581e-12 0)             (2.65848e-10 -4.05365e-12 0)             (2.7085e-10 -5.48089e-12 0)             (2.73018e-10 -6.21879e-12 0)             (2.76637e-10 -7.67025e-12 0)             (2.79459e-10 -9.07813e-12 0)             (2.80575e-10 -9.76812e-12 0)             (2.8236e-10 -1.11614e-11 0)             (2.8368e-10 -1.25341e-11 0)             (2.84636e-10 -1.38234e-11 0)             (2.85016e-10 -1.44234e-11 0)             (2.85698e-10 -1.54354e-11 0)             (2.86358e-10 -1.61769e-11 0)             (2.8706e-10 -1.66275e-11 0)             (2.87904e-10 -1.68671e-11 0)             (2.88901e-10 -1.68943e-11 0)             (2.90062e-10 -1.67144e-11 0)             (2.91351e-10 -1.63151e-11 0)             (2.92847e-10 -1.57274e-11 0)             (2.94529e-10 -1.49414e-11 0)             (2.96311e-10 -1.39666e-11 0)             (2.98215e-10 -1.28351e-11 0)             (3.00245e-10 -1.15535e-11 0)             (3.02335e-10 -1.01412e-11 0)             (3.04483e-10 -8.65329e-12 0)             (3.07827e-10 -6.29643e-12 0)             (3.1011e-10 -4.70556e-12 0)             (3.12453e-10 -3.08238e-12 0)             (3.16045e-10 -7.61283e-13 0)             (3.1848e-10 6.95441e-13 0)             (3.2233e-10 2.68756e-12 0)             (3.24979e-10 3.80508e-12 0)             (3.29206e-10 5.11885e-12 0)             (3.29917e-10 5.66292e-12 0)             (2.83101e-10 7.80143e-12 0)             (2.58546e-10 1.03181e-11 0)             (2.44712e-10 1.03336e-11 0)             (2.36976e-10 9.64281e-12 0)             (2.33893e-10 9.21817e-12 0)             (2.34828e-10 9.28408e-12 0)             (2.39631e-10 9.4821e-12 0)             (2.48525e-10 9.33649e-12 0)             (2.60604e-10 8.50623e-12 0)             (2.74843e-10 6.14098e-12 0)             (2.92706e-10 2.25287e-12 0)             (3.01868e-10 -6.30969e-13 0)             (3.09064e-10 -2.04147e-12 0)             (3.23543e-10 -4.03488e-13 0)
         22.6             (8.03855e-11 -1.45393e-11 0)             (7.49543e-11 -1.94788e-11 0)             (6.80955e-11 -2.36545e-11 0)             (6.30558e-11 -2.76866e-11 0)             (6.06874e-11 -3.15469e-11 0)             (6.35256e-11 -3.82943e-11 0)             (6.7048e-11 -4.05305e-11 0)             (7.06491e-11 -4.18216e-11 0)             (7.35327e-11 -4.20237e-11 0)             (7.5144e-11 -3.93219e-11 0)             (7.3514e-11 -3.68543e-11 0)             (7.0369e-11 -3.39087e-11 0)             (6.06403e-11 -2.73104e-11 0)             (5.4737e-11 -2.40023e-11 0)             (4.86447e-11 -2.07737e-11 0)             (3.71514e-11 -1.48214e-11 0)             (3.22298e-11 -1.22341e-11 0)             (2.80548e-11 -9.91775e-12 0)             (2.23974e-11 -6.14882e-12 0)             (2.09573e-11 -4.63995e-12 0)             (2.06278e-11 -2.44328e-12 0)             (2.16132e-11 -1.6728e-12 0)             (2.32024e-11 -1.10709e-12 0)             (2.78547e-11 -4.14424e-13 0)             (3.0707e-11 -2.89824e-13 0)             (3.69826e-11 -3.62882e-13 0)             (4.02536e-11 -5.43313e-13 0)             (4.67323e-11 -1.14594e-12 0)             (5.27301e-11 -2.03774e-12 0)             (5.54868e-11 -2.57983e-12 0)             (6.03393e-11 -3.78022e-12 0)             (6.24326e-11 -4.37833e-12 0)             (6.587e-11 -5.86788e-12 0)             (6.84532e-11 -7.73453e-12 0)             (6.94118e-11 -8.69464e-12 0)             (7.07821e-11 -1.06062e-11 0)             (7.15267e-11 -1.2344e-11 0)             (7.17368e-11 -1.39645e-11 0)             (7.16753e-11 -1.47127e-11 0)             (7.13487e-11 -1.60842e-11 0)             (7.08356e-11 -1.72722e-11 0)             (7.01984e-11 -1.82186e-11 0)             (6.95518e-11 -1.89367e-11 0)             (6.89318e-11 -1.941e-11 0)             (6.83783e-11 -1.9631e-11 0)             (6.78991e-11 -1.96595e-11 0)             (6.76048e-11 -1.96241e-11 0)             (6.75122e-11 -1.94425e-11 0)             (6.75649e-11 -1.89694e-11 0)             (6.78203e-11 -1.82442e-11 0)             (6.83079e-11 -1.7329e-11 0)             (6.89866e-11 -1.62851e-11 0)             (6.98724e-11 -1.51342e-11 0)             (7.15984e-11 -1.333e-11 0)             (7.29988e-11 -1.20865e-11 0)             (7.46121e-11 -1.08108e-11 0)             (7.7397e-11 -8.91722e-12 0)             (7.94791e-11 -7.72017e-12 0)             (8.30471e-11 -6.02903e-12 0)             (8.56683e-11 -5.04205e-12 0)             (9.0083e-11 -3.8783e-12 0)             (9.10665e-11 -3.36731e-12 0)             (4.48498e-11 -7.9469e-13 0)             (2.09249e-11 1.34862e-12 0)             (7.67203e-12 1.8915e-12 0)             (4.99513e-13 2.11099e-12 0)             (-2.03019e-12 2.68361e-12 0)             (-5.67533e-13 3.86737e-12 0)             (4.69805e-12 5.13602e-12 0)             (1.39586e-11 5.89693e-12 0)             (2.63281e-11 5.56032e-12 0)             (4.07948e-11 3.83879e-12 0)             (5.87961e-11 5.1895e-13 0)             (6.79226e-11 -2.04588e-12 0)             (7.50243e-11 -2.50839e-12 0)             (8.94647e-11 -7.49306e-14 0)
         22.7             (2.97461e-12 -1.22083e-11 0)             (-2.37591e-12 -1.95314e-11 0)             (-9.10537e-12 -2.5239e-11 0)             (-1.40318e-11 -2.90633e-11 0)             (-1.6326e-11 -3.20637e-11 0)             (-1.34539e-11 -3.85899e-11 0)             (-9.91262e-12 -4.15621e-11 0)             (-6.24399e-12 -4.35543e-11 0)             (-3.20106e-12 -4.40613e-11 0)             (-1.00872e-12 -4.05256e-11 0)             (-2.24478e-12 -3.69826e-11 0)             (-4.94108e-12 -3.27826e-11 0)             (-1.37277e-11 -2.42143e-11 0)             (-1.9191e-11 -2.0244e-11 0)             (-2.4877e-11 -1.65914e-11 0)             (-3.56858e-11 -1.04043e-11 0)             (-4.03254e-11 -7.78056e-12 0)             (-4.42492e-11 -5.35632e-12 0)             (-4.94267e-11 -9.43585e-13 0)             (-5.06009e-11 1.12996e-12 0)             (-5.02355e-11 4.84404e-12 0)             (-4.88015e-11 6.48166e-12 0)             (-4.66836e-11 7.94151e-12 0)             (-4.07439e-11 1.03111e-11 0)             (-3.71443e-11 1.11862e-11 0)             (-2.92271e-11 1.22923e-11 0)             (-2.50869e-11 1.25431e-11 0)             (-1.68406e-11 1.24872e-11 0)             (-9.11978e-12 1.1776e-11 0)             (-5.5403e-12 1.12024e-11 0)             (8.4394e-13 9.75535e-12 0)             (3.6437e-12 8.88024e-12 0)             (8.39547e-12 6.77584e-12 0)             (1.21506e-11 4.43251e-12 0)             (1.36503e-11 3.2131e-12 0)             (1.60314e-11 5.97719e-13 0)             (1.77594e-11 -2.12921e-12 0)             (1.8969e-11 -4.83389e-12 0)             (1.94186e-11 -6.11568e-12 0)             (2.01019e-11 -8.54939e-12 0)             (2.0574e-11 -1.0767e-11 0)             (2.08892e-11 -1.28549e-11 0)             (2.11779e-11 -1.47734e-11 0)             (2.15021e-11 -1.63247e-11 0)             (2.1899e-11 -1.75115e-11 0)             (2.23451e-11 -1.84016e-11 0)             (2.29628e-11 -1.90582e-11 0)             (2.3773e-11 -1.94538e-11 0)             (2.47423e-11 -1.95453e-11 0)             (2.59206e-11 -1.93438e-11 0)             (2.73463e-11 -1.89124e-11 0)             (2.89692e-11 -1.82653e-11 0)             (3.08138e-11 -1.74676e-11 0)             (3.4024e-11 -1.60811e-11 0)             (3.64188e-11 -1.50321e-11 0)             (3.90161e-11 -1.39437e-11 0)             (4.3231e-11 -1.22711e-11 0)             (4.62251e-11 -1.12441e-11 0)             (5.10876e-11 -9.80412e-12 0)             (5.45035e-11 -8.96171e-12 0)             (5.99813e-11 -8.07979e-12 0)             (6.15701e-11 -7.72702e-12 0)             (1.61493e-11 -5.21822e-12 0)             (-7.05038e-12 -1.46028e-12 0)             (-1.96408e-11 -4.33145e-13 0)             (-2.62457e-11 -2.64185e-13 0)             (-2.83247e-11 1.93326e-13 0)             (-2.64944e-11 1.07766e-12 0)             (-2.08999e-11 2.23512e-12 0)             (-1.13693e-11 3.52769e-12 0)             (1.20754e-12 4.02594e-12 0)             (1.588e-11 3.05538e-12 0)             (3.43271e-11 8.68963e-14 0)             (4.38005e-11 -2.53702e-12 0)             (5.11846e-11 -3.32887e-12 0)             (6.56501e-11 -7.52267e-13 0)
         22.8             (-1.75063e-12 -1.15229e-11 0)             (-7.12184e-12 -1.96531e-11 0)             (-1.41154e-11 -2.55765e-11 0)             (-1.92232e-11 -2.95868e-11 0)             (-2.14645e-11 -3.27735e-11 0)             (-1.80593e-11 -3.94491e-11 0)             (-1.43196e-11 -4.24772e-11 0)             (-1.06105e-11 -4.46478e-11 0)             (-7.67657e-12 -4.54804e-11 0)             (-5.82017e-12 -4.27451e-11 0)             (-7.13191e-12 -3.95514e-11 0)             (-9.79574e-12 -3.56556e-11 0)             (-1.82e-11 -2.71215e-11 0)             (-2.33674e-11 -2.30291e-11 0)             (-2.87446e-11 -1.9184e-11 0)             (-3.89883e-11 -1.24644e-11 0)             (-4.34002e-11 -9.59075e-12 0)             (-4.71306e-11 -6.99742e-12 0)             (-5.19854e-11 -2.58641e-12 0)             (-5.30167e-11 -6.8174e-13 0)             (-5.23502e-11 2.44768e-12 0)             (-5.07446e-11 3.69888e-12 0)             (-4.84369e-11 4.79104e-12 0)             (-4.20543e-11 6.43883e-12 0)             (-3.82138e-11 7.03105e-12 0)             (-2.97982e-11 7.77645e-12 0)             (-2.54053e-11 7.96158e-12 0)             (-1.66749e-11 7.9679e-12 0)             (-8.50215e-12 7.53307e-12 0)             (-4.71002e-12 7.1705e-12 0)             (2.07402e-12 6.16894e-12 0)             (5.06466e-12 5.57482e-12 0)             (1.01676e-11 4.17124e-12 0)             (1.42355e-11 2.33604e-12 0)             (1.58829e-11 1.29e-12 0)             (1.85489e-11 -1.15846e-12 0)             (2.04919e-11 -3.8184e-12 0)             (2.18386e-11 -6.4319e-12 0)             (2.23237e-11 -7.72857e-12 0)             (2.30628e-11 -1.02962e-11 0)             (2.35748e-11 -1.27525e-11 0)             (2.39269e-11 -1.50671e-11 0)             (2.42409e-11 -1.72099e-11 0)             (2.45581e-11 -1.91359e-11 0)             (2.48876e-11 -2.09555e-11 0)             (2.52472e-11 -2.2451e-11 0)             (2.57794e-11 -2.36042e-11 0)             (2.65147e-11 -2.44356e-11 0)             (2.74129e-11 -2.49961e-11 0)             (2.85243e-11 -2.52514e-11 0)             (2.98772e-11 -2.51767e-11 0)             (3.14128e-11 -2.48132e-11 0)             (3.31377e-11 -2.40444e-11 0)             (3.60449e-11 -2.21909e-11 0)             (3.81598e-11 -2.07637e-11 0)             (4.0422e-11 -1.91475e-11 0)             (4.40531e-11 -1.65264e-11 0)             (4.66073e-11 -1.47501e-11 0)             (5.07854e-11 -1.22995e-11 0)             (5.37645e-11 -1.08077e-11 0)             (5.86735e-11 -8.68688e-12 0)             (5.99741e-11 -7.38425e-12 0)             (1.41937e-11 -3.96116e-12 0)             (-9.36788e-12 -1.56057e-12 0)             (-2.23109e-11 -6.99132e-13 0)             (-2.92243e-11 -3.69821e-13 0)             (-3.1565e-11 2.85455e-13 0)             (-2.99827e-11 1.37928e-12 0)             (-2.46505e-11 2.59076e-12 0)             (-1.53545e-11 3.34504e-12 0)             (-2.93665e-12 2.9143e-12 0)             (1.16465e-11 1.32399e-12 0)             (2.98478e-11 -1.36178e-12 0)             (3.90806e-11 -3.68677e-12 0)             (4.62405e-11 -3.88949e-12 0)             (6.06553e-11 -9.06068e-13 0)