# Probe 0 (15.31 -0.61 0)
# Probe 1 (15.31 -0.6 0)
# Probe 2 (15.31 -0.59 0)
# Probe 3 (15.31 -0.58 0)
# Probe 4 (15.31 -0.57 0)
# Probe 5 (15.31 -0.56 0)
# Probe 6 (15.31 -0.55 0)
# Probe 7 (15.31 -0.54 0)
# Probe 8 (15.31 -0.53 0)
# Probe 9 (15.31 -0.52 0)
# Probe 10 (15.31 -0.51 0)
# Probe 11 (15.31 -0.5 0)
# Probe 12 (15.31 -0.49 0)
# Probe 13 (15.31 -0.48 0)
# Probe 14 (15.31 -0.47 0)
# Probe 15 (15.31 -0.46 0)
# Probe 16 (15.31 -0.45 0)
# Probe 17 (15.31 -0.44 0)
# Probe 18 (15.31 -0.43 0)
# Probe 19 (15.31 -0.42 0)
# Probe 20 (15.31 -0.41 0)
# Probe 21 (15.31 -0.4 0)
# Probe 22 (15.31 -0.39 0)
# Probe 23 (15.31 -0.38 0)
# Probe 24 (15.31 -0.37 0)
# Probe 25 (15.31 -0.36 0)
# Probe 26 (15.31 -0.35 0)
# Probe 27 (15.31 -0.34 0)
# Probe 28 (15.31 -0.33 0)
# Probe 29 (15.31 -0.32 0)
# Probe 30 (15.31 -0.31 0)
# Probe 31 (15.31 -0.3 0)
# Probe 32 (15.31 -0.29 0)
# Probe 33 (15.31 -0.28 0)
# Probe 34 (15.31 -0.27 0)
# Probe 35 (15.31 -0.26 0)
# Probe 36 (15.31 -0.25 0)
# Probe 37 (15.31 -0.24 0)
# Probe 38 (15.31 -0.23 0)
# Probe 39 (15.31 -0.22 0)
# Probe 40 (15.31 -0.21 0)
# Probe 41 (15.31 -0.2 0)
# Probe 42 (15.31 -0.19 0)
# Probe 43 (15.31 -0.18 0)
# Probe 44 (15.31 -0.17 0)
# Probe 45 (15.31 -0.16 0)
# Probe 46 (15.31 -0.15 0)
# Probe 47 (15.31 -0.14 0)
# Probe 48 (15.31 -0.13 0)
# Probe 49 (15.31 -0.12 0)
# Probe 50 (15.31 -0.11 0)
# Probe 51 (15.31 -0.1 0)
# Probe 52 (15.31 -0.09 0)
# Probe 53 (15.31 -0.08 0)
# Probe 54 (15.31 -0.07 0)
# Probe 55 (15.31 -0.06 0)
# Probe 56 (15.31 -0.05 0)
# Probe 57 (15.31 -0.04 0)
# Probe 58 (15.31 -0.03 0)
# Probe 59 (15.31 -0.02 0)
# Probe 60 (15.31 -0.01 0)
# Probe 61 (15.31 0 0)
# Probe 62 (15.31 0.01 0)
# Probe 63 (15.31 0.02 0)
# Probe 64 (15.31 0.03 0)
# Probe 65 (15.31 0.04 0)
# Probe 66 (15.31 0.05 0)
# Probe 67 (15.31 0.06 0)
# Probe 68 (15.31 0.07 0)
# Probe 69 (15.31 0.08 0)
# Probe 70 (15.31 0.09 0)
# Probe 71 (15.31 0.1 0)
# Probe 72 (15.31 0.11 0)
# Probe 73 (15.31 0.12 0)
# Probe 74 (15.31 0.13 0)
# Probe 75 (15.31 0.14 0)
#       Probe             0             1             2             3             4             5             6             7             8             9            10            11            12            13            14            15            16            17            18            19            20            21            22            23            24            25            26            27            28            29            30            31            32            33            34            35            36            37            38            39            40            41            42            43            44            45            46            47            48            49            50            51            52            53            54            55            56            57            58            59            60            61            62            63            64            65            66            67            68            69            70            71            72            73            74            75
#        Time
          0.1             (-2.22468e-11 -7.13699e-13 0)             (-2.24176e-11 -7.68424e-13 0)             (-2.23259e-11 -8.11072e-13 0)             (-2.20055e-11 -6.63194e-13 0)             (-2.15088e-11 -3.00274e-13 0)             (-2.0176e-11 1.21449e-12 0)             (-1.94286e-11 2.22472e-12 0)             (-1.86724e-11 3.33851e-12 0)             (-1.79311e-11 4.471e-12 0)             (-1.65491e-11 6.57856e-12 0)             (-1.59299e-11 7.44417e-12 0)             (-1.53587e-11 8.19958e-12 0)             (-1.43849e-11 9.27717e-12 0)             (-1.39881e-11 9.63259e-12 0)             (-1.36525e-11 9.85229e-12 0)             (-1.31827e-11 1.00346e-11 0)             (-1.30494e-11 1.00321e-11 0)             (-1.29804e-11 9.99237e-12 0)             (-1.30431e-11 9.81306e-12 0)             (-1.31641e-11 9.69211e-12 0)             (-1.35645e-11 9.41825e-12 0)             (-1.38363e-11 9.28855e-12 0)             (-1.41479e-11 9.16523e-12 0)             (-1.48668e-11 8.96795e-12 0)             (-1.52622e-11 8.88451e-12 0)             (-1.61037e-11 8.77003e-12 0)             (-1.65408e-11 8.73229e-12 0)             (-1.74286e-11 8.65196e-12 0)             (-1.83148e-11 8.61061e-12 0)             (-1.8747e-11 8.58775e-12 0)             (-1.95765e-11 8.55097e-12 0)             (-1.99709e-11 8.51804e-12 0)             (-2.07019e-11 8.48595e-12 0)             (-2.1349e-11 8.40087e-12 0)             (-2.16376e-11 8.36325e-12 0)             (-2.21425e-11 8.27265e-12 0)             (-2.25489e-11 8.2599e-12 0)             (-2.28689e-11 8.26751e-12 0)             (-2.29985e-11 8.2513e-12 0)             (-2.32001e-11 8.20955e-12 0)             (-2.33341e-11 8.12616e-12 0)             (-2.34024e-11 8.08957e-12 0)             (-2.34005e-11 8.11393e-12 0)             (-2.33341e-11 8.13568e-12 0)             (-2.3215e-11 8.15779e-12 0)             (-2.30433e-11 8.21042e-12 0)             (-2.2832e-11 8.28865e-12 0)             (-2.25811e-11 8.34239e-12 0)             (-2.23038e-11 8.43611e-12 0)             (-2.20029e-11 8.52012e-12 0)             (-2.16875e-11 8.61836e-12 0)             (-2.13559e-11 8.73173e-12 0)             (-2.10187e-11 8.87304e-12 0)             (-2.04969e-11 9.07863e-12 0)             (-2.0151e-11 9.18359e-12 0)             (-1.98087e-11 9.25602e-12 0)             (-1.93143e-11 9.31274e-12 0)             (-1.90011e-11 9.32443e-12 0)             (-1.85607e-11 9.24912e-12 0)             (-1.82894e-11 9.17804e-12 0)             (-1.79198e-11 8.99802e-12 0)             (-1.76991e-11 8.84985e-12 0)             (-1.74072e-11 8.55689e-12 0)             (-1.7159e-11 8.21364e-12 0)             (-1.69536e-11 7.75794e-12 0)             (-1.67887e-11 7.3049e-12 0)             (-1.66591e-11 6.79633e-12 0)             (-1.65616e-11 6.2374e-12 0)             (-1.64932e-11 5.65223e-12 0)             (-1.64498e-11 5.03874e-12 0)             (-1.64291e-11 4.43366e-12 0)             (-1.64258e-11 3.77349e-12 0)             (-1.6445e-11 2.90387e-12 0)             (-1.64744e-11 2.23555e-12 0)             (-1.65273e-11 1.31798e-12 0)             (-1.65896e-11 3.99307e-13 0)
          0.2             (2.93698e-13 -1.10363e-13 0)             (-1.21823e-13 -6.53033e-13 0)             (-5.4939e-13 -1.26691e-12 0)             (-9.49804e-13 -2.03948e-12 0)             (-1.29418e-12 -3.01694e-12 0)             (-1.7594e-12 -5.3017e-12 0)             (-1.86214e-12 -6.483e-12 0)             (-1.87391e-12 -7.58193e-12 0)             (-1.78773e-12 -8.51676e-12 0)             (-1.33315e-12 -9.85875e-12 0)             (-9.59116e-13 -1.02333e-11 0)             (-4.92388e-13 -1.0434e-11 0)             (7.16721e-13 -1.04373e-11 0)             (1.43882e-12 -1.01962e-11 0)             (2.21904e-12 -9.85582e-12 0)             (3.90857e-12 -9.02505e-12 0)             (4.79264e-12 -8.62357e-12 0)             (5.68917e-12 -8.21816e-12 0)             (7.46951e-12 -7.41572e-12 0)             (8.33195e-12 -7.06197e-12 0)             (9.94602e-12 -6.45769e-12 0)             (1.06797e-11 -6.21046e-12 0)             (1.13558e-11 -5.9963e-12 0)             (1.25185e-11 -5.62447e-12 0)             (1.29978e-11 -5.4939e-12 0)             (1.37332e-11 -5.27967e-12 0)             (1.39917e-11 -5.20973e-12 0)             (1.42876e-11 -5.12818e-12 0)             (1.4309e-11 -5.11606e-12 0)             (1.42253e-11 -5.13626e-12 0)             (1.38917e-11 -5.20051e-12 0)             (1.36525e-11 -5.23598e-12 0)             (1.30479e-11 -5.29367e-12 0)             (1.23117e-11 -5.35673e-12 0)             (1.19065e-11 -5.39814e-12 0)             (1.10424e-11 -5.50288e-12 0)             (1.01394e-11 -5.59717e-12 0)             (9.22963e-12 -5.7178e-12 0)             (8.78106e-12 -5.79204e-12 0)             (7.91452e-12 -5.91858e-12 0)             (7.09798e-12 -6.08479e-12 0)             (6.35045e-12 -6.20159e-12 0)             (5.69044e-12 -6.28743e-12 0)             (5.13146e-12 -6.32397e-12 0)             (4.68556e-12 -6.28382e-12 0)             (4.36825e-12 -6.19754e-12 0)             (4.18166e-12 -6.0373e-12 0)             (4.13568e-12 -5.81314e-12 0)             (4.2252e-12 -5.5201e-12 0)             (4.44652e-12 -5.22347e-12 0)             (4.79694e-12 -4.84327e-12 0)             (5.26314e-12 -4.48216e-12 0)             (5.83354e-12 -4.0806e-12 0)             (6.8679e-12 -3.48258e-12 0)             (7.65375e-12 -3.04414e-12 0)             (8.50459e-12 -2.59576e-12 0)             (9.87208e-12 -1.92108e-12 0)             (1.08251e-11 -1.43141e-12 0)             (1.22909e-11 -7.40858e-13 0)             (1.32757e-11 -3.1548e-13 0)             (1.47441e-11 2.65677e-13 0)             (1.57031e-11 6.16604e-13 0)             (1.70966e-11 1.02344e-12 0)             (1.84219e-11 1.3717e-12 0)             (1.96638e-11 1.62088e-12 0)             (2.08152e-11 1.83369e-12 0)             (2.18662e-11 1.96412e-12 0)             (2.28121e-11 2.04663e-12 0)             (2.3651e-11 2.05699e-12 0)             (2.43795e-11 2.02863e-12 0)             (2.49991e-11 1.98244e-12 0)             (2.55121e-11 1.85991e-12 0)             (2.60397e-11 1.63963e-12 0)             (2.6322e-11 1.39396e-12 0)             (2.65575e-11 1.06317e-12 0)             (2.66419e-11 6.74852e-13 0)
          0.3             (1.17298e-11 2.19795e-12 0)             (1.1842e-11 1.14169e-12 0)             (1.19513e-11 3.15445e-13 0)             (1.20362e-11 -6.68711e-13 0)             (1.20427e-11 -1.7961e-12 0)             (1.16841e-11 -4.1516e-12 0)             (1.13002e-11 -5.33196e-12 0)             (1.07873e-11 -6.48623e-12 0)             (1.01727e-11 -7.62625e-12 0)             (8.75613e-12 -9.79565e-12 0)             (8.02151e-12 -1.08225e-11 0)             (7.31316e-12 -1.18075e-11 0)             (6.06499e-12 -1.35349e-11 0)             (5.55675e-12 -1.42269e-11 0)             (5.13674e-12 -1.4788e-11 0)             (4.56428e-12 -1.56059e-11 0)             (4.4011e-12 -1.58669e-11 0)             (4.31258e-12 -1.59865e-11 0)             (4.33837e-12 -1.58438e-11 0)             (4.43601e-12 -1.55825e-11 0)             (4.76232e-12 -1.47624e-11 0)             (4.9726e-12 -1.42191e-11 0)             (5.20497e-12 -1.35768e-11 0)             (5.70944e-12 -1.21202e-11 0)             (5.97131e-12 -1.13214e-11 0)             (6.4933e-12 -9.66028e-12 0)             (6.74342e-12 -8.79626e-12 0)             (7.21431e-12 -7.12656e-12 0)             (7.63005e-12 -5.54153e-12 0)             (7.81593e-12 -4.79429e-12 0)             (8.1367e-12 -3.43502e-12 0)             (8.27351e-12 -2.8274e-12 0)             (8.49794e-12 -1.76957e-12 0)             (8.65817e-12 -9.49647e-13 0)             (8.71526e-12 -6.51431e-13 0)             (8.77773e-12 -2.30862e-13 0)             (8.78527e-12 -5.98167e-14 0)             (8.74e-12 -8.76802e-14 0)             (8.69981e-12 -1.59773e-13 0)             (8.59202e-12 -4.19225e-13 0)             (8.45842e-12 -7.43376e-13 0)             (8.31162e-12 -1.11128e-12 0)             (8.17347e-12 -1.49478e-12 0)             (8.05796e-12 -1.9575e-12 0)             (7.98457e-12 -2.47104e-12 0)             (7.96646e-12 -2.98415e-12 0)             (8.0137e-12 -3.53856e-12 0)             (8.1373e-12 -4.08853e-12 0)             (8.34099e-12 -4.60288e-12 0)             (8.63442e-12 -5.13151e-12 0)             (9.01327e-12 -5.58987e-12 0)             (9.48427e-12 -6.02706e-12 0)             (1.00463e-11 -6.37692e-12 0)             (1.10521e-11 -6.8482e-12 0)             (1.18245e-11 -7.10197e-12 0)             (1.26695e-11 -7.26546e-12 0)             (1.40555e-11 -7.42717e-12 0)             (1.50444e-11 -7.43039e-12 0)             (1.66017e-11 -7.36407e-12 0)             (1.7676e-11 -7.29613e-12 0)             (1.93135e-11 -7.05284e-12 0)             (2.04089e-11 -6.89222e-12 0)             (2.20492e-11 -6.5509e-12 0)             (2.36576e-11 -6.17455e-12 0)             (2.52108e-11 -5.72542e-12 0)             (2.66887e-11 -5.2542e-12 0)             (2.80767e-11 -4.70451e-12 0)             (2.93549e-11 -4.17748e-12 0)             (3.05177e-11 -3.62379e-12 0)             (3.15517e-11 -3.02791e-12 0)             (3.24543e-11 -2.4738e-12 0)             (3.32168e-11 -1.90239e-12 0)             (3.40193e-11 -1.18797e-12 0)             (3.4463e-11 -7.15281e-13 0)             (3.48424e-11 -8.78734e-14 0)             (3.49988e-11 4.75558e-13 0)
          0.4             (9.85081e-12 -3.62688e-13 0)             (9.71879e-12 -1.05431e-13 0)             (9.49272e-12 4.08035e-13 0)             (9.24714e-12 9.85328e-13 0)             (9.03493e-12 1.62559e-12 0)             (8.82446e-12 2.96973e-12 0)             (8.82973e-12 3.56203e-12 0)             (8.89132e-12 4.07448e-12 0)             (8.97452e-12 4.49439e-12 0)             (9.10338e-12 5.13572e-12 0)             (9.0961e-12 5.31521e-12 0)             (9.01582e-12 5.42835e-12 0)             (8.60453e-12 5.49372e-12 0)             (8.27716e-12 5.4339e-12 0)             (7.87343e-12 5.32634e-12 0)             (6.87046e-12 4.90435e-12 0)             (6.29506e-12 4.53634e-12 0)             (5.68857e-12 4.08865e-12 0)             (4.43366e-12 2.83339e-12 0)             (3.81171e-12 2.06832e-12 0)             (2.63033e-12 2.35254e-13 0)             (2.08814e-12 -7.74559e-13 0)             (1.5911e-12 -1.80932e-12 0)             (7.52521e-13 -3.93289e-12 0)             (4.2191e-13 -4.99656e-12 0)             (-4.05418e-14 -7.02734e-12 0)             (-1.70712e-13 -7.97708e-12 0)             (-2.29053e-13 -9.73538e-12 0)             (-2.90648e-14 -1.12149e-11 0)             (1.61129e-13 -1.18307e-11 0)             (7.1047e-13 -1.28496e-11 0)             (1.06703e-12 -1.32508e-11 0)             (1.94385e-12 -1.38223e-11 0)             (3.00685e-12 -1.40895e-11 0)             (3.60125e-12 -1.41422e-11 0)             (4.89868e-12 -1.40575e-11 0)             (6.31784e-12 -1.38968e-11 0)             (7.82342e-12 -1.36755e-11 0)             (8.6004e-12 -1.35488e-11 0)             (1.01822e-11 -1.32576e-11 0)             (1.17761e-11 -1.29173e-11 0)             (1.33563e-11 -1.25278e-11 0)             (1.49013e-11 -1.21357e-11 0)             (1.63954e-11 -1.1725e-11 0)             (1.78144e-11 -1.13741e-11 0)             (1.9146e-11 -1.10363e-11 0)             (2.03734e-11 -1.07387e-11 0)             (2.14882e-11 -1.04984e-11 0)             (2.24805e-11 -1.02841e-11 0)             (2.33431e-11 -1.01057e-11 0)             (2.40741e-11 -9.96966e-12 0)             (2.46697e-11 -9.88425e-12 0)             (2.51348e-11 -9.79453e-12 0)             (2.55969e-11 -9.7434e-12 0)             (2.57559e-11 -9.7178e-12 0)             (2.58056e-11 -9.70996e-12 0)             (2.56901e-11 -9.72336e-12 0)             (2.5499e-11 -9.73775e-12 0)             (2.50643e-11 -9.73719e-12 0)             (2.46929e-11 -9.69642e-12 0)             (2.40273e-11 -9.7037e-12 0)             (2.35308e-11 -9.62477e-12 0)             (2.27463e-11 -9.58377e-12 0)             (2.19127e-11 -9.41856e-12 0)             (2.10523e-11 -9.24656e-12 0)             (2.01883e-11 -8.98015e-12 0)             (1.93437e-11 -8.64484e-12 0)             (1.85346e-11 -8.24369e-12 0)             (1.77781e-11 -7.7175e-12 0)             (1.70829e-11 -7.10199e-12 0)             (1.64568e-11 -6.45231e-12 0)             (1.59098e-11 -5.68367e-12 0)             (1.53123e-11 -4.57436e-12 0)             (1.49596e-11 -3.67505e-12 0)             (1.46172e-11 -2.45283e-12 0)             (1.44141e-11 -1.21679e-12 0)
          0.5             (-2.67035e-12 1.03697e-12 0)             (-2.6577e-12 1.83705e-12 0)             (-2.61091e-12 2.02575e-12 0)             (-2.507e-12 1.75578e-12 0)             (-2.31765e-12 1.24162e-12 0)             (-1.63708e-12 8.57425e-14 0)             (-1.14471e-12 -3.59828e-13 0)             (-5.58802e-13 -5.93265e-13 0)             (1.10501e-13 -6.23949e-13 0)             (1.67627e-12 -9.49234e-14 0)             (2.55195e-12 3.78094e-13 0)             (3.48194e-12 9.37906e-13 0)             (5.45982e-12 2.04013e-12 0)             (6.48493e-12 2.52864e-12 0)             (7.5259e-12 2.92614e-12 0)             (9.59514e-12 3.47892e-12 0)             (1.05995e-11 3.60641e-12 0)             (1.15625e-11 3.63262e-12 0)             (1.33072e-11 3.37954e-12 0)             (1.40708e-11 3.11674e-12 0)             (1.53188e-11 2.39434e-12 0)             (1.57988e-11 1.92395e-12 0)             (1.61831e-11 1.39322e-12 0)             (1.6667e-11 2.41876e-13 0)             (1.67735e-11 -3.96444e-13 0)             (1.67587e-11 -1.75349e-12 0)             (1.66463e-11 -2.44579e-12 0)             (1.62507e-11 -3.90526e-12 0)             (1.56763e-11 -5.35231e-12 0)             (1.53481e-11 -6.10167e-12 0)             (1.46381e-11 -7.57816e-12 0)             (1.42769e-11 -8.27921e-12 0)             (1.35826e-11 -9.7002e-12 0)             (1.29612e-11 -1.10105e-11 0)             (1.26917e-11 -1.16149e-11 0)             (1.22435e-11 -1.27252e-11 0)             (1.19295e-11 -1.36538e-11 0)             (1.17557e-11 -1.44904e-11 0)             (1.17208e-11 -1.4856e-11 0)             (1.17555e-11 -1.54969e-11 0)             (1.19195e-11 -1.59659e-11 0)             (1.22028e-11 -1.62857e-11 0)             (1.25901e-11 -1.64803e-11 0)             (1.30625e-11 -1.64969e-11 0)             (1.35991e-11 -1.63758e-11 0)             (1.41816e-11 -1.61387e-11 0)             (1.47899e-11 -1.5771e-11 0)             (1.54086e-11 -1.52776e-11 0)             (1.60212e-11 -1.47464e-11 0)             (1.66138e-11 -1.41093e-11 0)             (1.71731e-11 -1.34109e-11 0)             (1.76877e-11 -1.26639e-11 0)             (1.81558e-11 -1.19044e-11 0)             (1.8751e-11 -1.07145e-11 0)             (1.90711e-11 -9.92525e-12 0)             (1.93277e-11 -9.1501e-12 0)             (1.95867e-11 -7.99946e-12 0)             (1.96718e-11 -7.28048e-12 0)             (1.96851e-11 -6.2796e-12 0)             (1.96145e-11 -5.65465e-12 0)             (1.93999e-11 -4.79712e-12 0)             (1.91955e-11 -4.31956e-12 0)             (1.88448e-11 -3.64472e-12 0)             (1.84014e-11 -3.06428e-12 0)             (1.78776e-11 -2.56578e-12 0)             (1.72976e-11 -2.15728e-12 0)             (1.66789e-11 -1.81478e-12 0)             (1.60386e-11 -1.51625e-12 0)             (1.53915e-11 -1.31372e-12 0)             (1.47546e-11 -1.13977e-12 0)             (1.41396e-11 -1.01197e-12 0)             (1.35588e-11 -8.9684e-13 0)             (1.28461e-11 -7.69246e-13 0)             (1.23704e-11 -6.85084e-13 0)             (1.18192e-11 -5.9842e-13 0)             (1.13727e-11 -5.45714e-13 0)
          0.6             (-4.78867e-12 -1.24612e-12 0)             (-4.46574e-12 -8.74369e-13 0)             (-4.02305e-12 -9.50785e-13 0)             (-3.56212e-12 -1.23143e-12 0)             (-3.11964e-12 -1.61026e-12 0)             (-2.35836e-12 -2.4459e-12 0)             (-2.01201e-12 -2.84831e-12 0)             (-1.65666e-12 -3.21522e-12 0)             (-1.26464e-12 -3.55846e-12 0)             (-2.72013e-13 -4.14027e-12 0)             (3.50362e-13 -4.38001e-12 0)             (1.06474e-12 -4.57577e-12 0)             (2.73035e-12 -4.81342e-12 0)             (3.65608e-12 -4.85712e-12 0)             (4.63061e-12 -4.84731e-12 0)             (6.66026e-12 -4.58943e-12 0)             (7.68991e-12 -4.37322e-12 0)             (8.71087e-12 -4.08271e-12 0)             (1.06806e-11 -3.39734e-12 0)             (1.16147e-11 -3.00981e-12 0)             (1.33388e-11 -2.25437e-12 0)             (1.41257e-11 -1.90814e-12 0)             (1.48545e-11 -1.59641e-12 0)             (1.61387e-11 -1.11444e-12 0)             (1.66906e-11 -9.66153e-13 0)             (1.7614e-11 -8.42108e-13 0)             (1.79891e-11 -8.89897e-13 0)             (1.85598e-11 -1.14607e-12 0)             (1.8894e-11 -1.61518e-12 0)             (1.89805e-11 -1.93946e-12 0)             (1.89983e-11 -2.7244e-12 0)             (1.89359e-11 -3.16405e-12 0)             (1.86916e-11 -4.16822e-12 0)             (1.82979e-11 -5.26554e-12 0)             (1.80589e-11 -5.84222e-12 0)             (1.74981e-11 -6.96826e-12 0)             (1.68536e-11 -8.04172e-12 0)             (1.61438e-11 -9.08788e-12 0)             (1.57768e-11 -9.56999e-12 0)             (1.50245e-11 -1.05123e-11 0)             (1.42701e-11 -1.13233e-11 0)             (1.35335e-11 -1.20145e-11 0)             (1.2829e-11 -1.25636e-11 0)             (1.21744e-11 -1.29759e-11 0)             (1.15738e-11 -1.32385e-11 0)             (1.10401e-11 -1.33348e-11 0)             (1.05781e-11 -1.33441e-11 0)             (1.01904e-11 -1.31841e-11 0)             (9.87804e-12 -1.29391e-11 0)             (9.64239e-12 -1.25727e-11 0)             (9.47862e-12 -1.213e-11 0)             (9.38577e-12 -1.16032e-11 0)             (9.36538e-12 -1.09837e-11 0)             (9.44915e-12 -9.97845e-12 0)             (9.58009e-12 -9.25349e-12 0)             (9.76153e-12 -8.50198e-12 0)             (1.01128e-11 -7.37613e-12 0)             (1.03889e-11 -6.63411e-12 0)             (1.08509e-11 -5.54923e-12 0)             (1.11808e-11 -4.86598e-12 0)             (1.16893e-11 -3.90381e-12 0)             (1.20354e-11 -3.30835e-12 0)             (1.25881e-11 -2.52745e-12 0)             (1.31035e-11 -1.7964e-12 0)             (1.35647e-11 -1.18508e-12 0)             (1.39617e-11 -6.36659e-13 0)             (1.42937e-11 -1.92879e-13 0)             (1.45575e-11 1.47723e-13 0)             (1.4754e-11 4.20024e-13 0)             (1.48814e-11 6.02539e-13 0)             (1.49414e-11 7.0604e-13 0)             (1.49399e-11 7.43375e-13 0)             (1.48447e-11 7.19651e-13 0)             (1.47111e-11 5.90221e-13 0)             (1.44541e-11 3.92921e-13 0)             (1.41252e-11 2.18629e-13 0)
          0.7             (3.93808e-12 4.70331e-13 0)             (3.64095e-12 -5.91442e-13 0)             (3.36246e-12 -1.4391e-12 0)             (3.14951e-12 -2.01466e-12 0)             (3.03227e-12 -2.45872e-12 0)             (3.02692e-12 -3.05735e-12 0)             (3.07364e-12 -3.2934e-12 0)             (3.10109e-12 -3.46867e-12 0)             (3.08061e-12 -3.61884e-12 0)             (2.83821e-12 -3.81734e-12 0)             (2.601e-12 -3.92766e-12 0)             (2.28901e-12 -4.07398e-12 0)             (1.50307e-12 -4.58801e-12 0)             (1.04683e-12 -4.89461e-12 0)             (5.68344e-13 -5.26348e-12 0)             (-4.19096e-13 -6.16192e-12 0)             (-9.08798e-13 -6.65951e-12 0)             (-1.38343e-12 -7.1652e-12 0)             (-2.26175e-12 -8.12402e-12 0)             (-2.65854e-12 -8.56868e-12 0)             (-3.34567e-12 -9.26035e-12 0)             (-3.63447e-12 -9.48961e-12 0)             (-3.88534e-12 -9.64939e-12 0)             (-4.27235e-12 -9.73075e-12 0)             (-4.40839e-12 -9.67579e-12 0)             (-4.57755e-12 -9.30008e-12 0)             (-4.62019e-12 -8.96476e-12 0)             (-4.63266e-12 -8.08076e-12 0)             (-4.55278e-12 -6.97783e-12 0)             (-4.48008e-12 -6.35831e-12 0)             (-4.27637e-12 -5.09376e-12 0)             (-4.14582e-12 -4.43492e-12 0)             (-3.82991e-12 -3.11548e-12 0)             (-3.45844e-12 -1.84936e-12 0)             (-3.2523e-12 -1.23451e-12 0)             (-2.81813e-12 -6.55366e-14 0)             (-2.36608e-12 9.80285e-13 0)             (-1.91159e-12 1.91547e-12 0)             (-1.6823e-12 2.33078e-12 0)             (-1.22321e-12 3.10976e-12 0)             (-7.52629e-13 3.7319e-12 0)             (-2.6915e-13 4.14245e-12 0)             (1.91726e-13 4.2397e-12 0)             (5.88934e-13 4.09855e-12 0)             (9.08759e-13 3.79075e-12 0)             (1.14782e-12 3.39797e-12 0)             (1.30943e-12 2.92095e-12 0)             (1.40291e-12 2.40493e-12 0)             (1.42747e-12 1.79906e-12 0)             (1.39601e-12 1.16962e-12 0)             (1.31385e-12 5.00067e-13 0)             (1.18106e-12 -2.05149e-13 0)             (1.01158e-12 -9.18537e-13 0)             (6.92636e-13 -2.00511e-12 0)             (4.5096e-13 -2.69335e-12 0)             (1.91612e-13 -3.38667e-12 0)             (-2.17335e-13 -4.33502e-12 0)             (-4.95388e-13 -4.89994e-12 0)             (-9.07007e-13 -5.66499e-12 0)             (-1.17157e-12 -6.09843e-12 0)             (-1.54238e-12 -6.64414e-12 0)             (-1.76078e-12 -6.91354e-12 0)             (-1.99672e-12 -7.20843e-12 0)             (-2.20667e-12 -7.37731e-12 0)             (-2.39603e-12 -7.40153e-12 0)             (-2.55793e-12 -7.27603e-12 0)             (-2.68904e-12 -7.0832e-12 0)             (-2.79196e-12 -6.75341e-12 0)             (-2.87667e-12 -6.36074e-12 0)             (-2.95112e-12 -5.82611e-12 0)             (-3.03297e-12 -5.22263e-12 0)             (-3.11796e-12 -4.48343e-12 0)             (-3.24673e-12 -3.52227e-12 0)             (-3.35749e-12 -2.70778e-12 0)             (-3.53539e-12 -1.63444e-12 0)             (-3.73964e-12 -5.58863e-13 0)
          0.8             (-4.71461e-12 -4.03099e-13 0)             (-4.37967e-12 -2.0591e-13 0)             (-3.9904e-12 -1.45645e-13 0)             (-3.62367e-12 -4.56203e-13 0)             (-3.30205e-12 -9.57437e-13 0)             (-2.78995e-12 -2.00542e-12 0)             (-2.54366e-12 -2.50106e-12 0)             (-2.2551e-12 -2.91446e-12 0)             (-1.90171e-12 -3.26139e-12 0)             (-8.97287e-13 -3.82471e-12 0)             (-2.34279e-13 -4.04994e-12 0)             (5.32543e-13 -4.21947e-12 0)             (2.31774e-12 -4.46999e-12 0)             (3.30009e-12 -4.49501e-12 0)             (4.31353e-12 -4.43273e-12 0)             (6.3511e-12 -4.15265e-12 0)             (7.34212e-12 -3.94049e-12 0)             (8.30154e-12 -3.6647e-12 0)             (1.008e-11 -3.06044e-12 0)             (1.08908e-11 -2.73783e-12 0)             (1.23397e-11 -2.07369e-12 0)             (1.29817e-11 -1.75604e-12 0)             (1.35702e-11 -1.47618e-12 0)             (1.45854e-11 -1.08407e-12 0)             (1.50161e-11 -9.72219e-13 0)             (1.57332e-11 -9.17692e-13 0)             (1.60182e-11 -9.95391e-13 0)             (1.64538e-11 -1.2514e-12 0)             (1.67163e-11 -1.72445e-12 0)             (1.67868e-11 -2.02418e-12 0)             (1.68046e-11 -2.7401e-12 0)             (1.67586e-11 -3.12405e-12 0)             (1.65759e-11 -3.98379e-12 0)             (1.62847e-11 -4.91634e-12 0)             (1.61075e-11 -5.40123e-12 0)             (1.56973e-11 -6.33016e-12 0)             (1.5231e-11 -7.26747e-12 0)             (1.47294e-11 -8.11098e-12 0)             (1.44726e-11 -8.52209e-12 0)             (1.39595e-11 -9.22135e-12 0)             (1.34728e-11 -9.8353e-12 0)             (1.30265e-11 -1.03365e-11 0)             (1.26232e-11 -1.08155e-11 0)             (1.22584e-11 -1.12133e-11 0)             (1.1932e-11 -1.15171e-11 0)             (1.16442e-11 -1.17275e-11 0)             (1.13976e-11 -1.17428e-11 0)             (1.1205e-11 -1.16022e-11 0)             (1.10696e-11 -1.13219e-11 0)             (1.10007e-11 -1.09569e-11 0)             (1.09979e-11 -1.04907e-11 0)             (1.10514e-11 -9.93734e-12 0)             (1.11656e-11 -9.35478e-12 0)             (1.14291e-11 -8.35947e-12 0)             (1.16621e-11 -7.67304e-12 0)             (1.19295e-11 -6.96803e-12 0)             (1.23876e-11 -5.86195e-12 0)             (1.27201e-11 -5.1326e-12 0)             (1.32543e-11 -4.10471e-12 0)             (1.36245e-11 -3.40827e-12 0)             (1.41876e-11 -2.47469e-12 0)             (1.4575e-11 -1.92201e-12 0)             (1.52227e-11 -1.18973e-12 0)             (1.58307e-11 -5.79287e-13 0)             (1.63844e-11 -4.80014e-14 0)             (1.68836e-11 3.38511e-13 0)             (1.73184e-11 6.57337e-13 0)             (1.76779e-11 8.67927e-13 0)             (1.79522e-11 1.00763e-12 0)             (1.81299e-11 1.07513e-12 0)             (1.82191e-11 1.07473e-12 0)             (1.82215e-11 1.06047e-12 0)             (1.80993e-11 8.9441e-13 0)             (1.79276e-11 7.16131e-13 0)             (1.75968e-11 4.29249e-13 0)             (1.71711e-11 1.66083e-14 0)