# Probe 0 (15.31 -0.61 0)
# Probe 1 (15.31 -0.6 0)
# Probe 2 (15.31 -0.59 0)
# Probe 3 (15.31 -0.58 0)
# Probe 4 (15.31 -0.57 0)
# Probe 5 (15.31 -0.56 0)
# Probe 6 (15.31 -0.55 0)
# Probe 7 (15.31 -0.54 0)
# Probe 8 (15.31 -0.53 0)
# Probe 9 (15.31 -0.52 0)
# Probe 10 (15.31 -0.51 0)
# Probe 11 (15.31 -0.5 0)
# Probe 12 (15.31 -0.49 0)
# Probe 13 (15.31 -0.48 0)
# Probe 14 (15.31 -0.47 0)
# Probe 15 (15.31 -0.46 0)
# Probe 16 (15.31 -0.45 0)
# Probe 17 (15.31 -0.44 0)
# Probe 18 (15.31 -0.43 0)
# Probe 19 (15.31 -0.42 0)
# Probe 20 (15.31 -0.41 0)
# Probe 21 (15.31 -0.4 0)
# Probe 22 (15.31 -0.39 0)
# Probe 23 (15.31 -0.38 0)
# Probe 24 (15.31 -0.37 0)
# Probe 25 (15.31 -0.36 0)
# Probe 26 (15.31 -0.35 0)
# Probe 27 (15.31 -0.34 0)
# Probe 28 (15.31 -0.33 0)
# Probe 29 (15.31 -0.32 0)
# Probe 30 (15.31 -0.31 0)
# Probe 31 (15.31 -0.3 0)
# Probe 32 (15.31 -0.29 0)
# Probe 33 (15.31 -0.28 0)
# Probe 34 (15.31 -0.27 0)
# Probe 35 (15.31 -0.26 0)
# Probe 36 (15.31 -0.25 0)
# Probe 37 (15.31 -0.24 0)
# Probe 38 (15.31 -0.23 0)
# Probe 39 (15.31 -0.22 0)
# Probe 40 (15.31 -0.21 0)
# Probe 41 (15.31 -0.2 0)
# Probe 42 (15.31 -0.19 0)
# Probe 43 (15.31 -0.18 0)
# Probe 44 (15.31 -0.17 0)
# Probe 45 (15.31 -0.16 0)
# Probe 46 (15.31 -0.15 0)
# Probe 47 (15.31 -0.14 0)
# Probe 48 (15.31 -0.13 0)
# Probe 49 (15.31 -0.12 0)
# Probe 50 (15.31 -0.11 0)
# Probe 51 (15.31 -0.1 0)
# Probe 52 (15.31 -0.09 0)
# Probe 53 (15.31 -0.08 0)
# Probe 54 (15.31 -0.07 0)
# Probe 55 (15.31 -0.06 0)
# Probe 56 (15.31 -0.05 0)
# Probe 57 (15.31 -0.04 0)
# Probe 58 (15.31 -0.03 0)
# Probe 59 (15.31 -0.02 0)
# Probe 60 (15.31 -0.01 0)
# Probe 61 (15.31 0 0)
# Probe 62 (15.31 0.01 0)
# Probe 63 (15.31 0.02 0)
# Probe 64 (15.31 0.03 0)
# Probe 65 (15.31 0.04 0)
# Probe 66 (15.31 0.05 0)
# Probe 67 (15.31 0.06 0)
# Probe 68 (15.31 0.07 0)
# Probe 69 (15.31 0.08 0)
# Probe 70 (15.31 0.09 0)
# Probe 71 (15.31 0.1 0)
# Probe 72 (15.31 0.11 0)
# Probe 73 (15.31 0.12 0)
# Probe 74 (15.31 0.13 0)
# Probe 75 (15.31 0.14 0)
#       Probe             0             1             2             3             4             5             6             7             8             9            10            11            12            13            14            15            16            17            18            19            20            21            22            23            24            25            26            27            28            29            30            31            32            33            34            35            36            37            38            39            40            41            42            43            44            45            46            47            48            49            50            51            52            53            54            55            56            57            58            59            60            61            62            63            64            65            66            67            68            69            70            71            72            73            74            75
#        Time
          0.1             (1.70214e-11 8.36994e-13 0)             (1.68375e-11 -5.13175e-12 0)             (1.68375e-11 -5.13175e-12 0)             (1.65307e-11 -1.76441e-12 0)             (1.65307e-11 -1.76441e-12 0)             (1.63521e-11 -2.36402e-12 0)             (1.6192e-11 -1.98361e-12 0)             (1.6192e-11 -1.98361e-12 0)             (1.61266e-11 -2.17889e-12 0)             (1.61233e-11 -2.46579e-12 0)             (1.61233e-11 -2.46579e-12 0)             (1.6197e-11 -2.93597e-12 0)             (1.6197e-11 -2.93597e-12 0)             (1.63391e-11 -3.40937e-12 0)             (1.65418e-11 -3.9258e-12 0)             (1.65418e-11 -3.9258e-12 0)             (1.67939e-11 -4.55916e-12 0)             (1.70911e-11 -5.18383e-12 0)             (1.74153e-11 -5.80348e-12 0)             (1.74153e-11 -5.80348e-12 0)             (1.77659e-11 -6.41971e-12 0)             (1.81304e-11 -6.99325e-12 0)             (1.81304e-11 -6.99325e-12 0)             (1.84979e-11 -7.50816e-12 0)             (1.88609e-11 -8.1969e-12 0)             (1.92414e-11 -8.93927e-12 0)             (1.92414e-11 -8.93927e-12 0)             (1.96381e-11 -9.3591e-12 0)             (2.00349e-11 -9.56797e-12 0)             (2.04314e-11 -9.71888e-12 0)             (2.08265e-11 -9.82208e-12 0)             (2.08265e-11 -9.82208e-12 0)             (2.12192e-11 -9.91169e-12 0)             (2.16085e-11 -1.00025e-11 0)             (2.19918e-11 -1.00638e-11 0)             (2.23654e-11 -1.0108e-11 0)             (2.27325e-11 -1.01312e-11 0)             (2.27325e-11 -1.01312e-11 0)             (2.30911e-11 -1.01614e-11 0)             (2.34435e-11 -1.02413e-11 0)             (2.37885e-11 -1.00705e-11 0)             (2.41165e-11 -9.87936e-12 0)             (2.44427e-11 -9.88829e-12 0)             (2.47643e-11 -9.81162e-12 0)             (2.5082e-11 -9.70634e-12 0)             (2.53924e-11 -9.57486e-12 0)             (2.56962e-11 -9.43144e-12 0)             (2.59953e-11 -9.27904e-12 0)             (2.62889e-11 -9.1063e-12 0)             (2.65766e-11 -8.89991e-12 0)             (2.68506e-11 -8.66862e-12 0)             (2.71244e-11 -8.29478e-12 0)             (2.73865e-11 -8.19414e-12 0)             (2.78942e-11 -7.84169e-12 0)             (2.81227e-11 -7.47895e-12 0)             (2.83553e-11 -7.31196e-12 0)             (2.85801e-11 -7.07007e-12 0)             (2.87896e-11 -6.81344e-12 0)             (2.91838e-11 -6.26123e-12 0)             (2.93678e-11 -5.37207e-12 0)             (2.95431e-11 -6.16427e-12 0)             (2.97131e-11 -5.20987e-12 0)             (2.99861e-11 -5.36675e-12 0)             (3.01556e-11 -3.81886e-12 0)             (3.03893e-11 -3.89353e-12 0)             (3.0498e-11 -3.61615e-12 0)             (3.05981e-11 -3.3331e-12 0)             (3.07733e-11 -2.78814e-12 0)             (3.09151e-11 -2.28712e-12 0)             (3.09729e-11 -2.01617e-12 0)             (3.10641e-11 -1.52464e-12 0)             (3.11003e-11 -1.30972e-12 0)             (3.11512e-11 -3.639e-12 0)             (3.11629e-11 -2.18044e-11 0)             (3.11547e-11 -8.23354e-11 0)             (3.11231e-11 -1.72798e-10 0)
          0.2             (2.12711e-11 8.67063e-13 0)             (2.19865e-11 -4.37058e-12 0)             (2.19865e-11 -4.37058e-12 0)             (2.2309e-11 -1.41549e-12 0)             (2.2309e-11 -1.41549e-12 0)             (2.2548e-11 -2.39505e-12 0)             (2.25216e-11 -9.83565e-13 0)             (2.25216e-11 -9.83565e-13 0)             (2.23595e-11 -3.72766e-13 0)             (2.20457e-11 3.3925e-13 0)             (2.20457e-11 3.3925e-13 0)             (2.16344e-11 8.4793e-13 0)             (2.16344e-11 8.4793e-13 0)             (2.11497e-11 1.23333e-12 0)             (2.06151e-11 1.42955e-12 0)             (2.06151e-11 1.42955e-12 0)             (2.00432e-11 1.36856e-12 0)             (1.94457e-11 1.19842e-12 0)             (1.88213e-11 9.31923e-13 0)             (1.88213e-11 9.31923e-13 0)             (1.81818e-11 5.69832e-13 0)             (1.75281e-11 1.46206e-13 0)             (1.75281e-11 1.46206e-13 0)             (1.68577e-11 -2.71767e-13 0)             (1.61685e-11 -9.00227e-13 0)             (1.5477e-11 -1.67365e-12 0)             (1.5477e-11 -1.67365e-12 0)             (1.47797e-11 -2.24855e-12 0)             (1.40711e-11 -2.74695e-12 0)             (1.33539e-11 -3.24034e-12 0)             (1.26282e-11 -3.69005e-12 0)             (1.26282e-11 -3.69005e-12 0)             (1.18956e-11 -4.13401e-12 0)             (1.11579e-11 -4.59304e-12 0)             (1.04134e-11 -5.03638e-12 0)             (9.66472e-12 -5.4592e-12 0)             (8.91474e-12 -5.8639e-12 0)             (8.91474e-12 -5.8639e-12 0)             (8.16295e-12 -6.26833e-12 0)             (7.40654e-12 -6.71163e-12 0)             (6.65752e-12 -6.91435e-12 0)             (5.90364e-12 -7.09164e-12 0)             (5.16088e-12 -7.45455e-12 0)             (4.41748e-12 -7.72655e-12 0)             (3.68128e-12 -7.9369e-12 0)             (2.95225e-12 -8.0926e-12 0)             (2.23424e-12 -8.20957e-12 0)             (1.52872e-12 -8.29204e-12 0)             (8.39355e-13 -8.32523e-12 0)             (1.67512e-13 -8.29779e-12 0)             (-4.93115e-13 -8.2382e-12 0)             (-1.12492e-12 -8.01178e-12 0)             (-1.74218e-12 -8.03574e-12 0)             (-2.91035e-12 -7.87799e-12 0)             (-3.47284e-12 -7.63572e-12 0)             (-4.00231e-12 -7.56892e-12 0)             (-4.50974e-12 -7.41423e-12 0)             (-5.00072e-12 -7.24681e-12 0)             (-5.91915e-12 -6.89873e-12 0)             (-6.34125e-12 -6.1091e-12 0)             (-6.74419e-12 -6.9178e-12 0)             (-7.1278e-12 -6.03672e-12 0)             (-7.8545e-12 -6.25831e-12 0)             (-8.14913e-12 -4.87417e-12 0)             (-8.74533e-12 -4.95694e-12 0)             (-9.00839e-12 -4.70043e-12 0)             (-9.25406e-12 -4.44066e-12 0)             (-9.68931e-12 -3.92643e-12 0)             (-1.00514e-11 -3.44218e-12 0)             (-1.02087e-11 -3.16472e-12 0)             (-1.04504e-11 -2.17648e-12 0)             (-1.06111e-11 -5.67143e-12 0)             (-1.0748e-11 -1.64072e-11 0)             (-1.08683e-11 -4.45541e-11 0)             (-1.09389e-11 -9.25431e-11 0)             (-1.0962e-11 -1.37832e-10 0)
          0.3             (2.13985e-11 1.35224e-12 0)             (2.10039e-11 -2.56471e-12 0)             (2.10039e-11 -2.56471e-12 0)             (2.02751e-11 5.90237e-13 0)             (2.02751e-11 5.90237e-13 0)             (1.97687e-11 -6.70168e-13 0)             (1.9266e-11 5.89754e-13 0)             (1.9266e-11 5.89754e-13 0)             (1.89329e-11 4.6801e-13 0)             (1.86682e-11 6.432e-13 0)             (1.86682e-11 6.432e-13 0)             (1.84691e-11 6.26986e-13 0)             (1.84691e-11 6.26986e-13 0)             (1.82997e-11 6.15887e-13 0)             (1.81325e-11 5.65294e-13 0)             (1.81325e-11 5.65294e-13 0)             (1.79404e-11 4.37216e-13 0)             (1.77064e-11 3.57866e-13 0)             (1.74108e-11 3.08232e-13 0)             (1.74108e-11 3.08232e-13 0)             (1.70537e-11 2.68193e-13 0)             (1.66282e-11 1.9967e-13 0)             (1.66282e-11 1.9967e-13 0)             (1.61329e-11 2.33063e-13 0)             (1.55633e-11 1.64366e-13 0)             (1.49343e-11 -1.84879e-14 0)             (1.49343e-11 -1.84879e-14 0)             (1.42425e-11 -6.10009e-14 0)             (1.34908e-11 -1.25506e-13 0)             (1.26848e-11 -2.04677e-13 0)             (1.18317e-11 -2.83375e-13 0)             (1.18317e-11 -2.83375e-13 0)             (1.0937e-11 -3.61358e-13 0)             (1.00099e-11 -4.27846e-13 0)             (9.05652e-12 -4.74258e-13 0)             (8.08348e-12 -4.97213e-13 0)             (7.09902e-12 -4.89225e-13 0)             (7.09902e-12 -4.89225e-13 0)             (6.10888e-12 -4.68355e-13 0)             (5.1144e-12 -4.88025e-13 0)             (4.13164e-12 -2.96284e-13 0)             (3.15862e-12 -1.02129e-13 0)             (2.2067e-12 -1.11332e-13 0)             (1.26432e-12 -9.77171e-14 0)             (3.40683e-13 -9.56576e-14 0)             (-5.66626e-13 -1.00003e-13 0)             (-1.45389e-12 -1.28465e-13 0)             (-2.32117e-12 -1.65997e-13 0)             (-3.16592e-12 -1.9409e-13 0)             (-3.98633e-12 -2.07805e-13 0)             (-4.78873e-12 -2.14821e-13 0)             (-5.55685e-12 -8.11465e-14 0)             (-6.30485e-12 -2.02757e-13 0)             (-7.71336e-12 -3.56289e-13 0)             (-8.38276e-12 -3.30461e-13 0)             (-9.01217e-12 -4.31671e-13 0)             (-9.61146e-12 -4.51685e-13 0)             (-1.01867e-11 -4.71537e-13 0)             (-1.12521e-11 -5.58234e-13 0)             (-1.17363e-11 5.3543e-15 0)             (-1.21949e-11 -9.10029e-13 0)             (-1.26301e-11 -2.52649e-13 0)             (-1.34434e-11 -8.71339e-13 0)             (-1.37754e-11 1.17686e-13 0)             (-1.44253e-11 -3.39119e-13 0)             (-1.47083e-11 -3.47592e-13 0)             (-1.49688e-11 -3.43043e-13 0)             (-1.54212e-11 -3.01065e-13 0)             (-1.57869e-11 -3.09779e-13 0)             (-1.59353e-11 2.01624e-13 0)             (-1.61296e-11 4.39933e-12 0)             (-1.63485e-11 -9.38955e-12 0)             (-1.64497e-11 -2.49475e-11 0)             (-1.65104e-11 -5.2619e-11 0)             (-1.65284e-11 -8.8044e-11 0)             (-1.64983e-11 -1.15614e-10 0)
          0.4             (2.55512e-11 1.2116e-12 0)             (2.48035e-11 -2.66483e-12 0)             (2.48035e-11 -2.66483e-12 0)             (2.38514e-11 -1.63603e-13 0)             (2.38514e-11 -1.63603e-13 0)             (2.31617e-11 -1.67203e-12 0)             (2.25771e-11 -4.29693e-13 0)             (2.25771e-11 -4.29693e-13 0)             (2.22188e-11 -1.07551e-12 0)             (2.19702e-11 -1.00494e-12 0)             (2.19702e-11 -1.00494e-12 0)             (2.1812e-11 -1.31056e-12 0)             (2.1812e-11 -1.31056e-12 0)             (2.1687e-11 -1.57782e-12 0)             (2.15556e-11 -1.85847e-12 0)             (2.15556e-11 -1.85847e-12 0)             (2.13811e-11 -2.15925e-12 0)             (2.11394e-11 -2.38749e-12 0)             (2.08097e-11 -2.57585e-12 0)             (2.08097e-11 -2.57585e-12 0)             (2.03866e-11 -2.72713e-12 0)             (1.98649e-11 -2.89697e-12 0)             (1.98649e-11 -2.89697e-12 0)             (1.92433e-11 -2.96924e-12 0)             (1.85223e-11 -3.0924e-12 0)             (1.77181e-11 -3.27381e-12 0)             (1.77181e-11 -3.27381e-12 0)             (1.68315e-11 -3.33567e-12 0)             (1.5864e-11 -3.43379e-12 0)             (1.48294e-11 -3.51127e-12 0)             (1.37363e-11 -3.54258e-12 0)             (1.37363e-11 -3.54258e-12 0)             (1.25949e-11 -3.53721e-12 0)             (1.1417e-11 -3.49761e-12 0)             (1.02114e-11 -3.4197e-12 0)             (8.98685e-12 -3.31576e-12 0)             (7.75432e-12 -3.16822e-12 0)             (7.75432e-12 -3.16822e-12 0)             (6.5202e-12 -2.98327e-12 0)             (5.28878e-12 -2.88167e-12 0)             (4.07177e-12 -2.63641e-12 0)             (2.86473e-12 -2.38891e-12 0)             (1.68113e-12 -2.30129e-12 0)             (5.11656e-13 -2.15154e-12 0)             (-6.35444e-13 -2.00643e-12 0)             (-1.7573e-12 -1.86454e-12 0)             (-2.85356e-12 -1.77001e-12 0)             (-3.91681e-12 -1.73777e-12 0)             (-4.94557e-12 -1.69777e-12 0)             (-5.93993e-12 -1.62677e-12 0)             (-6.90557e-12 -1.54904e-12 0)             (-7.8285e-12 -1.34479e-12 0)             (-8.72257e-12 -1.34336e-12 0)             (-1.04029e-11 -1.2642e-12 0)             (-1.11998e-11 -1.20124e-12 0)             (-1.19494e-11 -1.22623e-12 0)             (-1.26638e-11 -1.18971e-12 0)             (-1.33483e-11 -1.16502e-12 0)             (-1.46149e-11 -1.24326e-12 0)             (-1.51917e-11 -6.96308e-13 0)             (-1.57364e-11 -1.45326e-12 0)             (-1.6259e-11 -8.6508e-13 0)             (-1.72337e-11 -1.36382e-12 0)             (-1.76444e-11 -5.29354e-13 0)             (-1.8427e-11 -8.62706e-13 0)             (-1.87669e-11 -9.0229e-13 0)             (-1.90792e-11 -8.71734e-13 0)             (-1.96176e-11 -8.28721e-13 0)             (-2.00556e-11 -2.18161e-12 0)             (-2.01849e-11 2.27146e-12 0)             (-2.04349e-11 8.54343e-12 0)             (-2.06373e-11 -1.5113e-11 0)             (-2.07617e-11 -3.18298e-11 0)             (-2.08085e-11 -5.61457e-11 0)             (-2.0788e-11 -8.26067e-11 0)             (-2.07069e-11 -1.00991e-10 0)
          0.5             (1.58775e-11 4.08698e-12 0)             (1.53449e-11 2.8904e-12 0)             (1.53449e-11 2.8904e-12 0)             (1.48269e-11 4.37248e-12 0)             (1.48269e-11 4.37248e-12 0)             (1.44026e-11 1.5428e-12 0)             (1.39556e-11 1.65821e-12 0)             (1.39556e-11 1.65821e-12 0)             (1.35327e-11 2.73327e-13 0)             (1.30753e-11 1.04826e-13 0)             (1.30753e-11 1.04826e-13 0)             (1.2594e-11 -1.41141e-13 0)             (1.2594e-11 -1.41141e-13 0)             (1.20707e-11 -2.89896e-15 0)             (1.15087e-11 3.06868e-13 0)             (1.15087e-11 3.06868e-13 0)             (1.09096e-11 7.55335e-13 0)             (1.02849e-11 1.34504e-12 0)             (9.64007e-12 2.00969e-12 0)             (9.64007e-12 2.00969e-12 0)             (8.98503e-12 2.71169e-12 0)             (8.32936e-12 3.37564e-12 0)             (8.32936e-12 3.37564e-12 0)             (7.67436e-12 4.09943e-12 0)             (7.02299e-12 4.74164e-12 0)             (6.39005e-12 5.29884e-12 0)             (6.39005e-12 5.29884e-12 0)             (5.77455e-12 5.92421e-12 0)             (5.17515e-12 6.45005e-12 0)             (4.5952e-12 6.92985e-12 0)             (4.03514e-12 7.36559e-12 0)             (4.03514e-12 7.36559e-12 0)             (3.49621e-12 7.73423e-12 0)             (2.98061e-12 8.04561e-12 0)             (2.48822e-12 8.30604e-12 0)             (2.01792e-12 8.49499e-12 0)             (1.57336e-12 8.62145e-12 0)             (1.57336e-12 8.62145e-12 0)             (1.15329e-12 8.70974e-12 0)             (7.52985e-13 8.66227e-12 0)             (3.82298e-13 8.69138e-12 0)             (3.10156e-14 8.67701e-12 0)             (-2.89696e-13 8.46453e-12 0)             (-5.96063e-13 8.29333e-12 0)             (-8.8376e-13 8.11167e-12 0)             (-1.15818e-12 7.91655e-12 0)             (-1.42311e-12 7.71013e-12 0)             (-1.67976e-12 7.49564e-12 0)             (-1.92881e-12 7.26625e-12 0)             (-2.17061e-12 7.04881e-12 0)             (-2.41314e-12 6.82451e-12 0)             (-2.63766e-12 6.72001e-12 0)             (-2.8631e-12 6.44869e-12 0)             (-3.28713e-12 5.99279e-12 0)             (-3.49625e-12 5.777e-12 0)             (-3.68812e-12 5.48154e-12 0)             (-3.87401e-12 5.2648e-12 0)             (-4.05626e-12 5.02586e-12 0)             (-4.40282e-12 4.42634e-12 0)             (-4.56129e-12 4.68774e-12 0)             (-4.71137e-12 3.74597e-12 0)             (-4.86849e-12 4.01518e-12 0)             (-5.20108e-12 3.06657e-12 0)             (-5.32971e-12 3.56661e-12 0)             (-5.59758e-12 2.77464e-12 0)             (-5.71196e-12 2.46109e-12 0)             (-5.81412e-12 2.24184e-12 0)             (-5.98406e-12 1.16117e-12 0)             (-6.12282e-12 -2.20709e-12 0)             (-6.11223e-12 6.90814e-12 0)             (-6.13724e-12 1.39327e-11 0)             (-6.28898e-12 -1.84898e-11 0)             (-6.25212e-12 -3.51429e-11 0)             (-6.19328e-12 -5.63516e-11 0)             (-6.1081e-12 -7.71754e-11 0)             (-5.99173e-12 -9.07417e-11 0)
          0.6             (1.76404e-11 5.06175e-12 0)             (1.71982e-11 4.23011e-12 0)             (1.71982e-11 4.23011e-12 0)             (1.6721e-11 4.83866e-12 0)             (1.6721e-11 4.83866e-12 0)             (1.62641e-11 1.79981e-12 0)             (1.5818e-11 1.81252e-12 0)             (1.5818e-11 1.81252e-12 0)             (1.53236e-11 5.15079e-13 0)             (1.47866e-11 6.08684e-13 0)             (1.47866e-11 6.08684e-13 0)             (1.41952e-11 5.92792e-13 0)             (1.41952e-11 5.92792e-13 0)             (1.35458e-11 1.08875e-12 0)             (1.285e-11 1.74373e-12 0)             (1.285e-11 1.74373e-12 0)             (1.21161e-11 2.55484e-12 0)             (1.13613e-11 3.48351e-12 0)             (1.05896e-11 4.46662e-12 0)             (1.05896e-11 4.46662e-12 0)             (9.81805e-12 5.46513e-12 0)             (9.05323e-12 6.3881e-12 0)             (9.05323e-12 6.3881e-12 0)             (8.30135e-12 7.34779e-12 0)             (7.56733e-12 8.18747e-12 0)             (6.86606e-12 8.8908e-12 0)             (6.86606e-12 8.8908e-12 0)             (6.19998e-12 9.63243e-12 0)             (5.56508e-12 1.02529e-11 0)             (4.96751e-12 1.07978e-11 0)             (4.40841e-12 1.12622e-11 0)             (4.40841e-12 1.12622e-11 0)             (3.88563e-12 1.16316e-11 0)             (3.39977e-12 1.19173e-11 0)             (2.94749e-12 1.21162e-11 0)             (2.52819e-12 1.2234e-11 0)             (2.1388e-12 1.22829e-11 0)             (2.1388e-12 1.22829e-11 0)             (1.77822e-12 1.22659e-11 0)             (1.44113e-12 1.21212e-11 0)             (1.13233e-12 1.20707e-11 0)             (8.41898e-13 1.19654e-11 0)             (5.79993e-13 1.16704e-11 0)             (3.32374e-13 1.14223e-11 0)             (1.05173e-13 1.11614e-11 0)             (-1.06933e-13 1.08821e-11 0)             (-3.04058e-13 1.05876e-11 0)             (-4.89766e-13 1.02831e-11 0)             (-6.62414e-13 9.95932e-12 0)             (-8.23997e-13 9.64765e-12 0)             (-9.81545e-13 9.32179e-12 0)             (-1.1204e-12 9.08705e-12 0)             (-1.25758e-12 8.69032e-12 0)             (-1.50447e-12 7.99757e-12 0)             (-1.62757e-12 7.6482e-12 0)             (-1.73573e-12 7.2457e-12 0)             (-1.83948e-12 6.91452e-12 0)             (-1.9438e-12 6.557e-12 0)             (-2.14158e-12 5.71445e-12 0)             (-2.23345e-12 5.85213e-12 0)             (-2.31836e-12 4.82227e-12 0)             (-2.41889e-12 4.96709e-12 0)             (-2.67054e-12 3.85273e-12 0)             (-2.76581e-12 4.23957e-12 0)             (-2.95981e-12 3.30114e-12 0)             (-3.04013e-12 2.90416e-12 0)             (-3.10785e-12 2.59357e-12 0)             (-3.18153e-12 2.69265e-13 0)             (-3.22458e-12 -4.29669e-12 0)             (-3.28417e-12 9.63846e-12 0)             (-3.22249e-12 1.73739e-11 0)             (-3.28093e-12 -2.20333e-11 0)             (-3.19853e-12 -3.76158e-11 0)             (-3.07174e-12 -5.57823e-11 0)             (-2.9101e-12 -7.24788e-11 0)             (-2.71194e-12 -8.27031e-11 0)
          0.7             (1.82799e-11 5.46392e-12 0)             (1.78596e-11 4.64169e-12 0)             (1.78596e-11 4.64169e-12 0)             (1.73726e-11 4.66139e-12 0)             (1.73726e-11 4.66139e-12 0)             (1.69367e-11 1.49763e-12 0)             (1.65585e-11 1.45389e-12 0)             (1.65585e-11 1.45389e-12 0)             (1.60707e-11 3.04679e-13 0)             (1.55729e-11 7.63852e-13 0)             (1.55729e-11 7.63852e-13 0)             (1.49934e-11 1.0713e-12 0)             (1.49934e-11 1.0713e-12 0)             (1.43596e-11 1.96295e-12 0)             (1.36805e-11 2.98063e-12 0)             (1.36805e-11 2.98063e-12 0)             (1.29674e-11 4.11731e-12 0)             (1.22393e-11 5.30985e-12 0)             (1.15052e-11 6.5007e-12 0)             (1.15052e-11 6.5007e-12 0)             (1.07798e-11 7.65991e-12 0)             (1.00716e-11 8.69477e-12 0)             (1.00716e-11 8.69477e-12 0)             (9.38598e-12 9.71381e-12 0)             (8.72483e-12 1.05732e-11 0)             (8.10488e-12 1.12565e-11 0)             (8.10488e-12 1.12565e-11 0)             (7.52551e-12 1.19416e-11 0)             (6.97845e-12 1.24697e-11 0)             (6.47193e-12 1.28885e-11 0)             (6.00198e-12 1.32121e-11 0)             (6.00198e-12 1.32121e-11 0)             (5.56809e-12 1.34355e-11 0)             (5.17026e-12 1.35528e-11 0)             (4.80773e-12 1.35762e-11 0)             (4.47867e-12 1.3509e-11 0)             (4.18199e-12 1.33665e-11 0)             (4.18199e-12 1.33665e-11 0)             (3.91542e-12 1.3177e-11 0)             (3.67434e-12 1.28728e-11 0)             (3.46067e-12 1.26807e-11 0)             (3.26301e-12 1.24673e-11 0)             (3.08919e-12 1.20968e-11 0)             (2.92541e-12 1.17828e-11 0)             (2.7753e-12 1.14564e-11 0)             (2.63371e-12 1.11441e-11 0)             (2.49973e-12 1.08304e-11 0)             (2.36759e-12 1.04945e-11 0)             (2.23789e-12 1.01466e-11 0)             (2.11179e-12 9.80951e-12 0)             (1.98271e-12 9.46047e-12 0)             (1.86832e-12 9.22188e-12 0)             (1.75123e-12 8.81385e-12 0)             (1.53738e-12 8.08073e-12 0)             (1.42952e-12 7.72286e-12 0)             (1.335e-12 7.3037e-12 0)             (1.24405e-12 6.95591e-12 0)             (1.15301e-12 6.58563e-12 0)             (9.82997e-13 5.74945e-12 0)             (9.06758e-13 5.88368e-12 0)             (8.39574e-13 4.87579e-12 0)             (7.49352e-13 5.00104e-12 0)             (5.00535e-13 3.89566e-12 0)             (4.0757e-13 4.24561e-12 0)             (2.21835e-13 3.29692e-12 0)             (1.48464e-13 2.88972e-12 0)             (9.59894e-14 2.24549e-12 0)             (6.67093e-14 -1.26775e-12 0)             (4.29861e-14 -6.54475e-12 0)             (-6.26501e-14 1.19809e-11 0)             (3.9856e-14 2.00051e-11 0)             (4.09431e-14 -2.4779e-11 0)             (1.51938e-13 -3.89909e-11 0)             (3.19116e-13 -5.45771e-11 0)             (5.34496e-13 -6.81558e-11 0)             (7.91801e-13 -7.60426e-11 0)
          0.8             (2.12299e-11 5.9508e-12 0)             (2.07986e-11 5.14977e-12 0)             (2.07986e-11 5.14977e-12 0)             (2.04208e-11 4.59516e-12 0)             (2.04208e-11 4.59516e-12 0)             (2.00177e-11 1.4536e-12 0)             (1.97273e-11 1.60456e-12 0)             (1.97273e-11 1.60456e-12 0)             (1.92553e-11 8.18328e-13 0)             (1.88051e-11 1.76956e-12 0)             (1.88051e-11 1.76956e-12 0)             (1.82407e-11 2.55904e-12 0)             (1.82407e-11 2.55904e-12 0)             (1.76289e-11 3.96841e-12 0)             (1.69707e-11 5.46591e-12 0)             (1.69707e-11 5.46591e-12 0)             (1.6281e-11 7.05162e-12 0)             (1.558e-11 8.64497e-12 0)             (1.4876e-11 1.01634e-11 0)             (1.4876e-11 1.01634e-11 0)             (1.41845e-11 1.15598e-11 0)             (1.35124e-11 1.27628e-11 0)             (1.35124e-11 1.27628e-11 0)             (1.28662e-11 1.38826e-11 0)             (1.22429e-11 1.47659e-11 0)             (1.1661e-11 1.543e-11 0)             (1.1661e-11 1.543e-11 0)             (1.11153e-11 1.60481e-11 0)             (1.05968e-11 1.64713e-11 0)             (1.01101e-11 1.67681e-11 0)             (9.65116e-12 1.69589e-11 0)             (9.65116e-12 1.69589e-11 0)             (9.21955e-12 1.70411e-11 0)             (8.81217e-12 1.70253e-11 0)             (8.4257e-12 1.69267e-11 0)             (8.05919e-12 1.67514e-11 0)             (7.71076e-12 1.65077e-11 0)             (7.71076e-12 1.65077e-11 0)             (7.37825e-12 1.62104e-11 0)             (7.0586e-12 1.57895e-11 0)             (6.75596e-12 1.54627e-11 0)             (6.45991e-12 1.51031e-11 0)             (6.1852e-12 1.45719e-11 0)             (5.91643e-12 1.40878e-11 0)             (5.66133e-12 1.35997e-11 0)             (5.41477e-12 1.31241e-11 0)             (5.17927e-12 1.26362e-11 0)             (4.95164e-12 1.21476e-11 0)             (4.73461e-12 1.16727e-11 0)             (4.52617e-12 1.12121e-11 0)             (4.31927e-12 1.0746e-11 0)             (4.13024e-12 1.03963e-11 0)             (3.94243e-12 9.89284e-12 0)             (3.59801e-12 9.00042e-12 0)             (3.42921e-12 8.56351e-12 0)             (3.27744e-12 8.08405e-12 0)             (3.13216e-12 7.68195e-12 0)             (2.98944e-12 7.25032e-12 0)             (2.72474e-12 6.31435e-12 0)             (2.6043e-12 6.3817e-12 0)             (2.49691e-12 5.34014e-12 0)             (2.36372e-12 5.41403e-12 0)             (2.01107e-12 4.25674e-12 0)             (1.87045e-12 4.55141e-12 0)             (1.60449e-12 3.5538e-12 0)             (1.49077e-12 3.24682e-12 0)             (1.44013e-12 1.7315e-12 0)             (1.38185e-12 -2.67935e-12 0)             (1.32772e-12 -8.58066e-12 0)             (1.11408e-12 1.42242e-11 0)             (1.21721e-12 2.20925e-11 0)             (1.26392e-12 -2.66087e-11 0)             (1.37169e-12 -3.95396e-11 0)             (1.55283e-12 -5.29624e-11 0)             (1.79762e-12 -6.41715e-11 0)             (2.10101e-12 -7.03762e-11 0)