# Probe 0 (15.31 -0.61 0)
# Probe 1 (15.31 -0.6 0)
# Probe 2 (15.31 -0.59 0)
# Probe 3 (15.31 -0.58 0)
# Probe 4 (15.31 -0.57 0)
# Probe 5 (15.31 -0.56 0)
# Probe 6 (15.31 -0.55 0)
# Probe 7 (15.31 -0.54 0)
# Probe 8 (15.31 -0.53 0)
# Probe 9 (15.31 -0.52 0)
# Probe 10 (15.31 -0.51 0)
# Probe 11 (15.31 -0.5 0)
# Probe 12 (15.31 -0.49 0)
# Probe 13 (15.31 -0.48 0)
# Probe 14 (15.31 -0.47 0)
# Probe 15 (15.31 -0.46 0)
# Probe 16 (15.31 -0.45 0)
# Probe 17 (15.31 -0.44 0)
# Probe 18 (15.31 -0.43 0)
# Probe 19 (15.31 -0.42 0)
# Probe 20 (15.31 -0.41 0)
# Probe 21 (15.31 -0.4 0)
# Probe 22 (15.31 -0.39 0)
# Probe 23 (15.31 -0.38 0)
# Probe 24 (15.31 -0.37 0)
# Probe 25 (15.31 -0.36 0)
# Probe 26 (15.31 -0.35 0)
# Probe 27 (15.31 -0.34 0)
# Probe 28 (15.31 -0.33 0)
# Probe 29 (15.31 -0.32 0)
# Probe 30 (15.31 -0.31 0)
# Probe 31 (15.31 -0.3 0)
# Probe 32 (15.31 -0.29 0)
# Probe 33 (15.31 -0.28 0)
# Probe 34 (15.31 -0.27 0)
# Probe 35 (15.31 -0.26 0)
# Probe 36 (15.31 -0.25 0)
# Probe 37 (15.31 -0.24 0)
# Probe 38 (15.31 -0.23 0)
# Probe 39 (15.31 -0.22 0)
# Probe 40 (15.31 -0.21 0)
# Probe 41 (15.31 -0.2 0)
# Probe 42 (15.31 -0.19 0)
# Probe 43 (15.31 -0.18 0)
# Probe 44 (15.31 -0.17 0)
# Probe 45 (15.31 -0.16 0)
# Probe 46 (15.31 -0.15 0)
# Probe 47 (15.31 -0.14 0)
# Probe 48 (15.31 -0.13 0)
# Probe 49 (15.31 -0.12 0)
# Probe 50 (15.31 -0.11 0)
# Probe 51 (15.31 -0.1 0)
# Probe 52 (15.31 -0.09 0)
# Probe 53 (15.31 -0.08 0)
# Probe 54 (15.31 -0.07 0)
# Probe 55 (15.31 -0.06 0)
# Probe 56 (15.31 -0.05 0)
# Probe 57 (15.31 -0.04 0)
# Probe 58 (15.31 -0.03 0)
# Probe 59 (15.31 -0.02 0)
# Probe 60 (15.31 -0.01 0)
# Probe 61 (15.31 0 0)
# Probe 62 (15.31 0.01 0)
# Probe 63 (15.31 0.02 0)
# Probe 64 (15.31 0.03 0)
# Probe 65 (15.31 0.04 0)
# Probe 66 (15.31 0.05 0)
# Probe 67 (15.31 0.06 0)
# Probe 68 (15.31 0.07 0)
# Probe 69 (15.31 0.08 0)
# Probe 70 (15.31 0.09 0)
# Probe 71 (15.31 0.1 0)
# Probe 72 (15.31 0.11 0)
# Probe 73 (15.31 0.12 0)
# Probe 74 (15.31 0.13 0)
# Probe 75 (15.31 0.14 0)
#       Probe             0             1             2             3             4             5             6             7             8             9            10            11            12            13            14            15            16            17            18            19            20            21            22            23            24            25            26            27            28            29            30            31            32            33            34            35            36            37            38            39            40            41            42            43            44            45            46            47            48            49            50            51            52            53            54            55            56            57            58            59            60            61            62            63            64            65            66            67            68            69            70            71            72            73            74            75
#        Time
          0.1             (5.70278e-12 8.49275e-14 0)             (5.80003e-12 -4.56021e-13 0)             (5.80003e-12 -4.56021e-13 0)             (5.79828e-12 -1.31851e-12 0)             (5.79828e-12 -1.31851e-12 0)             (5.73495e-12 -1.70777e-12 0)             (5.65675e-12 -1.94267e-12 0)             (5.65675e-12 -1.94267e-12 0)             (5.58775e-12 -2.10038e-12 0)             (5.53424e-12 -2.27317e-12 0)             (5.53424e-12 -2.27317e-12 0)             (5.49387e-12 -2.5143e-12 0)             (5.49387e-12 -2.5143e-12 0)             (5.45579e-12 -2.82767e-12 0)             (5.40839e-12 -3.19442e-12 0)             (5.40839e-12 -3.19442e-12 0)             (5.33876e-12 -3.60726e-12 0)             (5.23885e-12 -4.02844e-12 0)             (5.10864e-12 -4.42189e-12 0)             (5.10864e-12 -4.42189e-12 0)             (4.95194e-12 -4.77797e-12 0)             (4.76851e-12 -5.08562e-12 0)             (4.76851e-12 -5.08562e-12 0)             (4.55156e-12 -5.33592e-12 0)             (4.30316e-12 -5.53606e-12 0)             (4.02683e-12 -5.6892e-12 0)             (4.02683e-12 -5.6892e-12 0)             (3.72996e-12 -5.79896e-12 0)             (3.41791e-12 -5.88265e-12 0)             (3.09827e-12 -5.94097e-12 0)             (2.77952e-12 -5.98382e-12 0)             (2.77952e-12 -5.98382e-12 0)             (2.46685e-12 -6.04235e-12 0)             (2.16194e-12 -6.12113e-12 0)             (1.8663e-12 -6.20503e-12 0)             (1.58204e-12 -6.28776e-12 0)             (1.30764e-12 -6.36452e-12 0)             (1.30764e-12 -6.36452e-12 0)             (1.04173e-12 -6.43263e-12 0)             (7.84998e-13 -6.49222e-12 0)             (5.38046e-13 -6.53906e-12 0)             (3.02261e-13 -6.57561e-12 0)             (7.80873e-14 -6.59966e-12 0)             (-1.34e-13 -6.61195e-12 0)             (-3.33357e-13 -6.61155e-12 0)             (-5.2017e-13 -6.59833e-12 0)             (-6.93156e-13 -6.57113e-12 0)             (-8.53541e-13 -6.52803e-12 0)             (-1.0012e-12 -6.46992e-12 0)             (-1.13707e-12 -6.39676e-12 0)             (-1.26115e-12 -6.3129e-12 0)             (-1.37384e-12 -6.22293e-12 0)             (-1.47535e-12 -6.12411e-12 0)             (-1.64578e-12 -5.90294e-12 0)             (-1.71599e-12 -5.78006e-12 0)             (-1.77692e-12 -5.65247e-12 0)             (-1.82921e-12 -5.51652e-12 0)             (-1.87344e-12 -5.37232e-12 0)             (-1.94068e-12 -5.069e-12 0)             (-1.96495e-12 -4.90866e-12 0)             (-1.98418e-12 -4.74033e-12 0)             (-1.99828e-12 -4.56679e-12 0)             (-2.01538e-12 -4.20195e-12 0)             (-2.01933e-12 -4.00652e-12 0)             (-2.02046e-12 -3.60955e-12 0)             (-2.01789e-12 -3.41196e-12 0)             (-2.01379e-12 -3.21728e-12 0)             (-2.00213e-12 -2.82133e-12 0)             (-1.98642e-12 -2.43591e-12 0)             (-1.97785e-12 -2.24699e-12 0)             (-1.95958e-12 -1.86807e-12 0)             (-1.95064e-12 -1.68354e-12 0)             (-1.93201e-12 -1.32e-12 0)             (-1.91409e-12 -9.55506e-13 0)             (-1.89826e-12 -6.02441e-13 0)             (-1.88415e-12 -2.18098e-13 0)
          0.2             (-7.60214e-13 1.2467e-13 0)             (-6.20199e-13 -2.43565e-13 0)             (-6.20199e-13 -2.43565e-13 0)             (-6.13562e-13 -1.00789e-12 0)             (-6.13562e-13 -1.00789e-12 0)             (-6.32512e-13 -1.48041e-12 0)             (-6.4601e-13 -1.76667e-12 0)             (-6.4601e-13 -1.76667e-12 0)             (-6.40753e-13 -1.91249e-12 0)             (-6.07857e-13 -2.02867e-12 0)             (-6.07857e-13 -2.02867e-12 0)             (-5.50916e-13 -2.16694e-12 0)             (-5.50916e-13 -2.16694e-12 0)             (-4.73181e-13 -2.35619e-12 0)             (-3.79979e-13 -2.59765e-12 0)             (-3.79979e-13 -2.59765e-12 0)             (-2.78871e-13 -2.88527e-12 0)             (-1.73523e-13 -3.18443e-12 0)             (-6.59277e-14 -3.46762e-12 0)             (-6.59277e-14 -3.46762e-12 0)             (4.37948e-14 -3.72875e-12 0)             (1.54319e-13 -3.96322e-12 0)             (1.54319e-13 -3.96322e-12 0)             (2.64411e-13 -4.17085e-12 0)             (3.7216e-13 -4.35711e-12 0)             (4.7672e-13 -4.52214e-12 0)             (4.7672e-13 -4.52214e-12 0)             (5.77962e-13 -4.662e-12 0)             (6.75774e-13 -4.77724e-12 0)             (7.72701e-13 -4.87074e-12 0)             (8.68719e-13 -4.94495e-12 0)             (8.68719e-13 -4.94495e-12 0)             (9.64731e-13 -5.00536e-12 0)             (1.06079e-12 -5.05781e-12 0)             (1.15634e-12 -5.10993e-12 0)             (1.25222e-12 -5.16623e-12 0)             (1.34919e-12 -5.22602e-12 0)             (1.34919e-12 -5.22602e-12 0)             (1.44711e-12 -5.28591e-12 0)             (1.54557e-12 -5.3429e-12 0)             (1.6438e-12 -5.3973e-12 0)             (1.7416e-12 -5.44835e-12 0)             (1.83887e-12 -5.49879e-12 0)             (1.93457e-12 -5.54899e-12 0)             (2.02772e-12 -5.60234e-12 0)             (2.11753e-12 -5.65028e-12 0)             (2.2046e-12 -5.6725e-12 0)             (2.28968e-12 -5.66387e-12 0)             (2.37343e-12 -5.6313e-12 0)             (2.45673e-12 -5.57715e-12 0)             (2.54006e-12 -5.50159e-12 0)             (2.62376e-12 -5.40782e-12 0)             (2.70765e-12 -5.2951e-12 0)             (2.87674e-12 -5.03278e-12 0)             (2.96118e-12 -4.88298e-12 0)             (3.04517e-12 -4.72468e-12 0)             (3.12798e-12 -4.55888e-12 0)             (3.20992e-12 -4.38653e-12 0)             (3.36906e-12 -4.04196e-12 0)             (3.44574e-12 -3.87148e-12 0)             (3.52027e-12 -3.70285e-12 0)             (3.59197e-12 -3.53402e-12 0)             (3.72648e-12 -3.20034e-12 0)             (3.79033e-12 -3.03611e-12 0)             (3.90933e-12 -2.71193e-12 0)             (3.96526e-12 -2.5503e-12 0)             (4.01821e-12 -2.39192e-12 0)             (4.11601e-12 -2.07825e-12 0)             (4.20248e-12 -1.76775e-12 0)             (4.24162e-12 -1.6145e-12 0)             (4.31205e-12 -1.31301e-12 0)             (4.3432e-12 -1.16604e-12 0)             (4.3988e-12 -8.73212e-13 0)             (4.44575e-12 -5.79305e-13 0)             (4.48392e-12 -2.90773e-13 0)             (4.51462e-12 -5.21184e-15 0)
          0.3             (-1.21814e-12 1.1045e-14 0)             (-1.03339e-12 -2.35362e-13 0)             (-1.03339e-12 -2.35362e-13 0)             (-1.02712e-12 -6.60906e-13 0)             (-1.02712e-12 -6.60906e-13 0)             (-1.0169e-12 -9.8004e-13 0)             (-1.00226e-12 -1.17816e-12 0)             (-1.00226e-12 -1.17816e-12 0)             (-9.70617e-13 -1.24953e-12 0)             (-9.12123e-13 -1.29679e-12 0)             (-9.12123e-13 -1.29679e-12 0)             (-8.2772e-13 -1.36838e-12 0)             (-8.2772e-13 -1.36838e-12 0)             (-7.19483e-13 -1.48575e-12 0)             (-5.89578e-13 -1.64535e-12 0)             (-5.89578e-13 -1.64535e-12 0)             (-4.43262e-13 -1.83242e-12 0)             (-2.82404e-13 -2.01503e-12 0)             (-1.11114e-13 -2.17594e-12 0)             (-1.11114e-13 -2.17594e-12 0)             (6.86694e-14 -2.31296e-12 0)             (2.52982e-13 -2.4345e-12 0)             (2.52982e-13 -2.4345e-12 0)             (4.39363e-13 -2.55287e-12 0)             (6.25565e-13 -2.66873e-12 0)             (8.10038e-13 -2.7801e-12 0)             (8.10038e-13 -2.7801e-12 0)             (9.91262e-13 -2.88955e-12 0)             (1.1678e-12 -2.9972e-12 0)             (1.33946e-12 -3.10128e-12 0)             (1.50467e-12 -3.20034e-12 0)             (1.50467e-12 -3.20034e-12 0)             (1.66378e-12 -3.29363e-12 0)             (1.81663e-12 -3.3808e-12 0)             (1.96203e-12 -3.46356e-12 0)             (2.10087e-12 -3.54406e-12 0)             (2.2334e-12 -3.61697e-12 0)             (2.2334e-12 -3.61697e-12 0)             (2.35875e-12 -3.67837e-12 0)             (2.47637e-12 -3.73319e-12 0)             (2.58598e-12 -3.78275e-12 0)             (2.68796e-12 -3.82836e-12 0)             (2.78163e-12 -3.87369e-12 0)             (2.86635e-12 -3.91793e-12 0)             (2.94256e-12 -3.95796e-12 0)             (3.01032e-12 -3.98205e-12 0)             (3.07135e-12 -3.98176e-12 0)             (3.12613e-12 -3.95887e-12 0)             (3.17544e-12 -3.91941e-12 0)             (3.22078e-12 -3.86719e-12 0)             (3.2623e-12 -3.8024e-12 0)             (3.30082e-12 -3.72757e-12 0)             (3.33653e-12 -3.64244e-12 0)             (3.40227e-12 -3.44921e-12 0)             (3.43298e-12 -3.34496e-12 0)             (3.46219e-12 -3.23461e-12 0)             (3.49012e-12 -3.12188e-12 0)             (3.51777e-12 -3.00673e-12 0)             (3.57017e-12 -2.76808e-12 0)             (3.59518e-12 -2.64485e-12 0)             (3.61971e-12 -2.522e-12 0)             (3.64265e-12 -2.39681e-12 0)             (3.68181e-12 -2.14151e-12 0)             (3.70133e-12 -2.01635e-12 0)             (3.74013e-12 -1.76171e-12 0)             (3.75943e-12 -1.63865e-12 0)             (3.7788e-12 -1.51621e-12 0)             (3.81684e-12 -1.27958e-12 0)             (3.85349e-12 -1.05172e-12 0)             (3.87176e-12 -9.44163e-13 0)             (3.90729e-12 -7.35632e-13 0)             (3.92439e-12 -6.39119e-13 0)             (3.95889e-12 -4.50799e-13 0)             (3.99365e-12 -2.66772e-13 0)             (4.02762e-12 -8.02776e-14 0)             (4.06193e-12 1.03864e-13 0)
          0.4             (-3.25629e-13 6.45217e-14 0)             (-3.10067e-13 -1.10004e-13 0)             (-3.10067e-13 -1.10004e-13 0)             (-3.23451e-13 -5.5788e-13 0)             (-3.23451e-13 -5.5788e-13 0)             (-3.13886e-13 -9.38094e-13 0)             (-3.17177e-13 -1.18486e-12 0)             (-3.17177e-13 -1.18486e-12 0)             (-3.06576e-13 -1.33302e-12 0)             (-2.71329e-13 -1.46555e-12 0)             (-2.71329e-13 -1.46555e-12 0)             (-2.11581e-13 -1.59836e-12 0)             (-2.11581e-13 -1.59836e-12 0)             (-1.32865e-13 -1.75008e-12 0)             (-4.01068e-14 -1.92015e-12 0)             (-4.01068e-14 -1.92015e-12 0)             (6.03225e-14 -2.10755e-12 0)             (1.63748e-13 -2.3035e-12 0)             (2.662e-13 -2.50907e-12 0)             (2.662e-13 -2.50907e-12 0)             (3.67231e-13 -2.72075e-12 0)             (4.6435e-13 -2.92403e-12 0)             (4.6435e-13 -2.92403e-12 0)             (5.56457e-13 -3.10906e-12 0)             (6.40525e-13 -3.27185e-12 0)             (7.12733e-13 -3.40988e-12 0)             (7.12733e-13 -3.40988e-12 0)             (7.73388e-13 -3.52413e-12 0)             (8.20954e-13 -3.62108e-12 0)             (8.57345e-13 -3.71165e-12 0)             (8.80455e-13 -3.80047e-12 0)             (8.80455e-13 -3.80047e-12 0)             (8.91249e-13 -3.87932e-12 0)             (8.89694e-13 -3.93256e-12 0)             (8.76968e-13 -3.95238e-12 0)             (8.54969e-13 -3.93911e-12 0)             (8.27114e-13 -3.89073e-12 0)             (8.27114e-13 -3.89073e-12 0)             (7.94571e-13 -3.80831e-12 0)             (7.59494e-13 -3.69436e-12 0)             (7.24037e-13 -3.55939e-12 0)             (6.90437e-13 -3.42264e-12 0)             (6.58303e-13 -3.29051e-12 0)             (6.27628e-13 -3.15976e-12 0)             (5.99171e-13 -3.0333e-12 0)             (5.73551e-13 -2.91117e-12 0)             (5.50937e-13 -2.79049e-12 0)             (5.30656e-13 -2.67436e-12 0)             (5.13372e-13 -2.56056e-12 0)             (4.99563e-13 -2.44742e-12 0)             (4.88513e-13 -2.33728e-12 0)             (4.80344e-13 -2.2293e-12 0)             (4.75224e-13 -2.12071e-12 0)             (4.7406e-13 -1.92495e-12 0)             (4.78043e-13 -1.83112e-12 0)             (4.84393e-13 -1.73634e-12 0)             (4.92901e-13 -1.64243e-12 0)             (5.03891e-13 -1.55036e-12 0)             (5.30673e-13 -1.37067e-12 0)             (5.46405e-13 -1.28493e-12 0)             (5.63746e-13 -1.20107e-12 0)             (5.80049e-13 -1.11945e-12 0)             (6.05433e-13 -9.63812e-13 0)             (6.20877e-13 -8.91131e-13 0)             (6.57111e-13 -7.47233e-13 0)             (6.77706e-13 -6.80806e-13 0)             (7.00211e-13 -6.16782e-13 0)             (7.48774e-13 -4.88663e-13 0)             (8.00798e-13 -3.69818e-13 0)             (8.28303e-13 -3.12505e-13 0)             (8.84862e-13 -2.06057e-13 0)             (9.1343e-13 -1.55998e-13 0)             (9.722e-13 -5.29646e-14 0)             (1.03208e-12 4.2507e-14 0)             (1.09147e-12 1.40223e-13 0)             (1.1497e-12 2.39925e-13 0)
          0.5             (6.04495e-13 1.98616e-13 0)             (5.2755e-13 1.11515e-13 0)             (5.2755e-13 1.11515e-13 0)             (5.78384e-13 -3.60272e-13 0)             (5.78384e-13 -3.60272e-13 0)             (5.75913e-13 -6.93804e-13 0)             (5.53617e-13 -9.25021e-13 0)             (5.53617e-13 -9.25021e-13 0)             (5.45486e-13 -1.10184e-12 0)             (5.60741e-13 -1.28019e-12 0)             (5.60741e-13 -1.28019e-12 0)             (5.95497e-13 -1.46382e-12 0)             (5.95497e-13 -1.46382e-12 0)             (6.46271e-13 -1.66899e-12 0)             (7.10545e-13 -1.89746e-12 0)             (7.10545e-13 -1.89746e-12 0)             (7.82913e-13 -2.14779e-12 0)             (8.61814e-13 -2.40763e-12 0)             (9.44899e-13 -2.66394e-12 0)             (9.44899e-13 -2.66394e-12 0)             (1.03081e-12 -2.9029e-12 0)             (1.11334e-12 -3.11703e-12 0)             (1.11334e-12 -3.11703e-12 0)             (1.18908e-12 -3.30031e-12 0)             (1.25324e-12 -3.45062e-12 0)             (1.30252e-12 -3.57084e-12 0)             (1.30252e-12 -3.57084e-12 0)             (1.33532e-12 -3.66831e-12 0)             (1.3512e-12 -3.75216e-12 0)             (1.35059e-12 -3.83174e-12 0)             (1.33201e-12 -3.90782e-12 0)             (1.33201e-12 -3.90782e-12 0)             (1.29771e-12 -3.96746e-12 0)             (1.24985e-12 -3.99711e-12 0)             (1.18993e-12 -3.98872e-12 0)             (1.12017e-12 -3.93954e-12 0)             (1.04452e-12 -3.84683e-12 0)             (1.04452e-12 -3.84683e-12 0)             (9.64523e-13 -3.71552e-12 0)             (8.83546e-13 -3.54535e-12 0)             (8.03594e-13 -3.36243e-12 0)             (7.24894e-13 -3.19118e-12 0)             (6.47995e-13 -3.02233e-12 0)             (5.72634e-13 -2.8533e-12 0)             (4.98733e-13 -2.68546e-12 0)             (4.27352e-13 -2.5197e-12 0)             (3.57561e-13 -2.35554e-12 0)             (2.89295e-13 -2.19422e-12 0)             (2.22688e-13 -2.04274e-12 0)             (1.5958e-13 -1.90772e-12 0)             (9.94809e-14 -1.79813e-12 0)             (4.38948e-14 -1.71408e-12 0)             (-6.37505e-15 -1.64793e-12 0)             (-8.97266e-14 -1.51051e-12 0)             (-1.2402e-13 -1.43481e-12 0)             (-1.54839e-13 -1.35969e-12 0)             (-1.81903e-13 -1.28414e-12 0)             (-2.04738e-13 -1.20951e-12 0)             (-2.41524e-13 -1.06251e-12 0)             (-2.55233e-13 -9.91758e-13 0)             (-2.65204e-13 -9.22529e-13 0)             (-2.77368e-13 -8.54101e-13 0)             (-3.13083e-13 -7.23313e-13 0)             (-3.24655e-13 -6.62134e-13 0)             (-3.34656e-13 -5.42378e-13 0)             (-3.33435e-13 -4.86161e-13 0)             (-3.27806e-13 -4.31353e-13 0)             (-3.05573e-13 -3.21573e-13 0)             (-2.69556e-13 -2.20784e-13 0)             (-2.46918e-13 -1.73746e-13 0)             (-1.9263e-13 -8.14916e-14 0)             (-1.61586e-13 -3.62095e-14 0)             (-9.16871e-14 4.92171e-14 0)             (-1.25475e-14 1.32294e-13 0)             (7.35689e-14 2.15849e-13 0)             (1.65196e-13 3.22097e-13 0)
          0.6             (-2.25836e-12 6.09559e-13 0)             (-2.52178e-12 3.79369e-13 0)             (-2.52178e-12 3.79369e-13 0)             (-2.66015e-12 -6.58032e-13 0)             (-2.66015e-12 -6.58032e-13 0)             (-2.77227e-12 -1.06319e-12 0)             (-2.82203e-12 -1.37575e-12 0)             (-2.82203e-12 -1.37575e-12 0)             (-2.84473e-12 -1.54842e-12 0)             (-2.84375e-12 -1.60357e-12 0)             (-2.84375e-12 -1.60357e-12 0)             (-2.82305e-12 -1.54722e-12 0)             (-2.82305e-12 -1.54722e-12 0)             (-2.7811e-12 -1.44787e-12 0)             (-2.71515e-12 -1.34001e-12 0)             (-2.71515e-12 -1.34001e-12 0)             (-2.62549e-12 -1.23659e-12 0)             (-2.50996e-12 -1.13388e-12 0)             (-2.36857e-12 -1.03286e-12 0)             (-2.36857e-12 -1.03286e-12 0)             (-2.2e-12 -9.32621e-13 0)             (-2.00606e-12 -8.30431e-13 0)             (-2.00606e-12 -8.30431e-13 0)             (-1.78941e-12 -7.24205e-13 0)             (-1.55311e-12 -6.08282e-13 0)             (-1.30142e-12 -4.86579e-13 0)             (-1.30142e-12 -4.86579e-13 0)             (-1.03773e-12 -3.68719e-13 0)             (-7.65414e-13 -2.56708e-13 0)             (-4.85942e-13 -1.45897e-13 0)             (-2.0298e-13 -2.7942e-14 0)             (-2.0298e-13 -2.7942e-14 0)             (8.39633e-14 1.01943e-13 0)             (3.75203e-13 2.37129e-13 0)             (6.67797e-13 3.67152e-13 0)             (9.6125e-13 4.82475e-13 0)             (1.25562e-12 5.80309e-13 0)             (1.25562e-12 5.80309e-13 0)             (1.54869e-12 6.60151e-13 0)             (1.83992e-12 7.18377e-13 0)             (2.12773e-12 7.52724e-13 0)             (2.41262e-12 7.63491e-13 0)             (2.6945e-12 7.54017e-13 0)             (2.97185e-12 7.28228e-13 0)             (3.24436e-12 6.86408e-13 0)             (3.51253e-12 6.24495e-13 0)             (3.77652e-12 5.36961e-13 0)             (4.03611e-12 4.43574e-13 0)             (4.2902e-12 3.66253e-13 0)             (4.53844e-12 3.03143e-13 0)             (4.7792e-12 2.50684e-13 0)             (5.01048e-12 2.05105e-13 0)             (5.23194e-12 1.66981e-13 0)             (5.64374e-12 1.01719e-13 0)             (5.83436e-12 7.37629e-14 0)             (6.01439e-12 4.68791e-14 0)             (6.18396e-12 2.13179e-14 0)             (6.34426e-12 -3.78096e-15 0)             (6.63424e-12 -4.95071e-14 0)             (6.76508e-12 -7.43515e-14 0)             (6.88872e-12 -9.78857e-14 0)             (6.9951e-12 -1.22715e-13 0)             (7.15177e-12 -1.82272e-13 0)             (7.22284e-12 -2.148e-13 0)             (7.35314e-12 -2.82378e-13 0)             (7.41336e-12 -3.08949e-13 0)             (7.47143e-12 -3.34816e-13 0)             (7.58077e-12 -3.68959e-13 0)             (7.68334e-12 -3.88717e-13 0)             (7.73284e-12 -3.89637e-13 0)             (7.83078e-12 -3.66577e-13 0)             (7.87922e-12 -3.47168e-13 0)             (7.97785e-12 -2.8498e-13 0)             (8.07994e-12 -2.07054e-13 0)             (8.18572e-12 -1.00129e-13 0)             (8.29548e-12 -1.14416e-13 0)
          0.7             (-3.1096e-12 7.70111e-13 0)             (-3.49432e-12 3.09577e-13 0)             (-3.49432e-12 3.09577e-13 0)             (-3.67543e-12 -9.98142e-13 0)             (-3.67543e-12 -9.98142e-13 0)             (-3.80031e-12 -1.33739e-12 0)             (-3.8573e-12 -1.68189e-12 0)             (-3.8573e-12 -1.68189e-12 0)             (-3.89181e-12 -1.80322e-12 0)             (-3.90457e-12 -1.79762e-12 0)             (-3.90457e-12 -1.79762e-12 0)             (-3.90051e-12 -1.6977e-12 0)             (-3.90051e-12 -1.6977e-12 0)             (-3.87719e-12 -1.55482e-12 0)             (-3.83018e-12 -1.37713e-12 0)             (-3.83018e-12 -1.37713e-12 0)             (-3.75845e-12 -1.18865e-12 0)             (-3.65782e-12 -9.83312e-13 0)             (-3.52745e-12 -7.66553e-13 0)             (-3.52745e-12 -7.66553e-13 0)             (-3.36525e-12 -5.40518e-13 0)             (-3.17301e-12 -3.03184e-13 0)             (-3.17301e-12 -3.03184e-13 0)             (-2.95304e-12 -6.03787e-14 0)             (-2.70854e-12 1.87608e-13 0)             (-2.44249e-12 4.4177e-13 0)             (-2.44249e-12 4.4177e-13 0)             (-2.15886e-12 6.96731e-13 0)             (-1.86024e-12 9.48403e-13 0)             (-1.5483e-12 1.19144e-12 0)             (-1.22691e-12 1.42095e-12 0)             (-1.22691e-12 1.42095e-12 0)             (-8.96683e-13 1.63051e-12 0)             (-5.59081e-13 1.81363e-12 0)             (-2.17016e-13 1.96505e-12 0)             (1.28589e-13 2.0759e-12 0)             (4.78784e-13 2.13443e-12 0)             (4.78784e-13 2.13443e-12 0)             (8.31599e-13 2.13877e-12 0)             (1.18852e-12 2.11368e-12 0)             (1.54614e-12 2.07995e-12 0)             (1.90257e-12 2.03732e-12 0)             (2.257e-12 1.98664e-12 0)             (2.60682e-12 1.92549e-12 0)             (2.95127e-12 1.85178e-12 0)             (3.29034e-12 1.76903e-12 0)             (3.62362e-12 1.6733e-12 0)             (3.94988e-12 1.57576e-12 0)             (4.26834e-12 1.4962e-12 0)             (4.57851e-12 1.43188e-12 0)             (4.87878e-12 1.37542e-12 0)             (5.16776e-12 1.32592e-12 0)             (5.4463e-12 1.28241e-12 0)             (5.97193e-12 1.20419e-12 0)             (6.21883e-12 1.16478e-12 0)             (6.45375e-12 1.12507e-12 0)             (6.67676e-12 1.08518e-12 0)             (6.88878e-12 1.04334e-12 0)             (7.27762e-12 9.55917e-13 0)             (7.45524e-12 9.07123e-13 0)             (7.62604e-12 8.57054e-13 0)             (7.77436e-12 8.04282e-13 0)             (7.99761e-12 6.82761e-13 0)             (8.10126e-12 6.16864e-13 0)             (8.29672e-12 4.81688e-13 0)             (8.38875e-12 4.12388e-13 0)             (8.47874e-12 3.45691e-13 0)             (8.64969e-12 2.14424e-13 0)             (8.81199e-12 9.69547e-14 0)             (8.89063e-12 4.40232e-14 0)             (9.04535e-12 -4.5896e-14 0)             (9.12137e-12 -7.92432e-14 0)             (9.27422e-12 -1.22672e-13 0)             (9.42936e-12 -1.27676e-13 0)             (9.58902e-12 -8.57169e-14 0)             (9.75579e-12 -1.67529e-13 0)
          0.8             (-3.80821e-12 7.72912e-13 0)             (-4.26768e-12 2.4648e-13 0)             (-4.26768e-12 2.4648e-13 0)             (-4.45454e-12 -9.84419e-13 0)             (-4.45454e-12 -9.84419e-13 0)             (-4.57749e-12 -1.17024e-12 0)             (-4.62858e-12 -1.44089e-12 0)             (-4.62858e-12 -1.44089e-12 0)             (-4.65943e-12 -1.46698e-12 0)             (-4.66731e-12 -1.39953e-12 0)             (-4.66731e-12 -1.39953e-12 0)             (-4.65797e-12 -1.24917e-12 0)             (-4.65797e-12 -1.24917e-12 0)             (-4.63035e-12 -1.05779e-12 0)             (-4.58022e-12 -8.15064e-13 0)             (-4.58022e-12 -8.15064e-13 0)             (-4.50559e-12 -5.57456e-13 0)             (-4.40282e-12 -2.84817e-13 0)             (-4.27103e-12 -1.54214e-15 0)             (-4.27103e-12 -1.54214e-15 0)             (-4.10849e-12 2.91857e-13 0)             (-3.91684e-12 5.94041e-13 0)             (-3.91684e-12 5.94041e-13 0)             (-3.69908e-12 8.98768e-13 0)             (-3.45712e-12 1.19377e-12 0)             (-3.19262e-12 1.47043e-12 0)             (-3.19262e-12 1.47043e-12 0)             (-2.9073e-12 1.72337e-12 0)             (-2.60246e-12 1.94531e-12 0)             (-2.27983e-12 2.13137e-12 0)             (-1.94274e-12 2.28046e-12 0)             (-1.94274e-12 2.28046e-12 0)             (-1.59202e-12 2.39136e-12 0)             (-1.22987e-12 2.46462e-12 0)             (-8.59876e-13 2.50375e-12 0)             (-4.83924e-13 2.51033e-12 0)             (-1.01708e-13 2.48294e-12 0)             (-1.01708e-13 2.48294e-12 0)             (2.83703e-13 2.41335e-12 0)             (6.74158e-13 2.31052e-12 0)             (1.06795e-12 2.19419e-12 0)             (1.46345e-12 2.07276e-12 0)             (1.85955e-12 1.94756e-12 0)             (2.253e-12 1.82068e-12 0)             (2.64077e-12 1.69533e-12 0)             (3.02026e-12 1.57338e-12 0)             (3.38801e-12 1.46176e-12 0)             (3.74031e-12 1.37131e-12 0)             (4.07669e-12 1.29185e-12 0)             (4.39954e-12 1.20895e-12 0)             (4.70885e-12 1.12507e-12 0)             (5.00421e-12 1.03955e-12 0)             (5.28652e-12 9.51554e-13 0)             (5.81251e-12 7.70965e-13 0)             (6.05673e-12 6.82095e-13 0)             (6.28817e-12 5.97273e-13 0)             (6.50711e-12 5.17336e-13 0)             (6.71488e-12 4.37801e-13 0)             (7.09478e-12 2.96385e-13 0)             (7.26824e-12 2.32323e-13 0)             (7.43564e-12 1.73125e-13 0)             (7.57639e-12 1.17669e-13 0)             (7.76915e-12 1.09388e-14 0)             (7.8599e-12 -4.07395e-14 0)             (8.03719e-12 -1.32775e-13 0)             (8.12377e-12 -1.74415e-13 0)             (8.21092e-12 -2.11706e-13 0)             (8.38436e-12 -2.69154e-13 0)             (8.5594e-12 -3.06252e-13 0)             (8.64815e-12 -3.16386e-13 0)             (8.83018e-12 -3.20039e-13 0)             (8.92285e-12 -3.10658e-13 0)             (9.11575e-12 -2.68851e-13 0)             (9.3179e-12 -2.06923e-13 0)             (9.53104e-12 -1.07177e-13 0)             (9.75741e-12 -1.58684e-13 0)